
Predictions were generated on 08-Jun-2015 at 15:27:42 using AeroDyn_driver (v1.00.00-bjj, 28-May-2015)
 AeroDyn (v15.00.00a-bjj, 29-May-2015)

Case 13: WndSpeed=10 m/s; ShearExp=0 ; RotSpeed=71.541 rpm; Pitch=3 deg; Yaw=0 deg; dT=5.24151E-03 s; Tmax=0.8336 s

     Time           	B1N1Theta 	B1N1Psi   	B1N1Vx    	B1N1Vy    	 B1N1AxInd	 B1N1TanIn	B1N1IndVel	 B1N1Phi  	 B1N1AOA  	 B1N1Cl   	 B1N1Cd   	 B1N1Cx   	 B1N1Cy   	 B1N1Fx   	 B1N1Fy   	B1N2Theta 	B1N2Psi   	B1N2Vx    	B1N2Vy    	 B1N2AxInd	 B1N2TanIn	B1N2IndVel	 B1N2Phi  	 B1N2AOA  	 B1N2Cl   	 B1N2Cd   	 B1N2Cx   	 B1N2Cy   	 B1N2Fx   	 B1N2Fy   	B1N3Theta 	B1N3Psi   	B1N3Vx    	B1N3Vy    	 B1N3AxInd	 B1N3TanIn	B1N3IndVel	 B1N3Phi  	 B1N3AOA  	 B1N3Cl   	 B1N3Cd   	 B1N3Cx   	 B1N3Cy   	 B1N3Fx   	 B1N3Fy   	B1N4Theta 	B1N4Psi   	B1N4Vx    	B1N4Vy    	 B1N4AxInd	 B1N4TanIn	B1N4IndVel	 B1N4Phi  	 B1N4AOA  	 B1N4Cl   	 B1N4Cd   	 B1N4Cx   	 B1N4Cy   	 B1N4Fx   	 B1N4Fy   	B1N5Theta 	B1N5Psi   	B1N5Vx    	B1N5Vy    	 B1N5AxInd	 B1N5TanIn	B1N5IndVel	 B1N5Phi  	 B1N5AOA  	 B1N5Cl   	 B1N5Cd   	 B1N5Cx   	 B1N5Cy   	 B1N5Fx   	 B1N5Fy   	B1N6Theta 	B1N6Psi   	B1N6Vx    	B1N6Vy    	 B1N6AxInd	 B1N6TanIn	B1N6IndVel	 B1N6Phi  	 B1N6AOA  	 B1N6Cl   	 B1N6Cd   	 B1N6Cx   	 B1N6Cy   	 B1N6Fx   	 B1N6Fy   	B1N7Theta 	B1N7Psi   	B1N7Vx    	B1N7Vy    	 B1N7AxInd	 B1N7TanIn	B1N7IndVel	 B1N7Phi  	 B1N7AOA  	 B1N7Cl   	 B1N7Cd   	 B1N7Cx   	 B1N7Cy   	 B1N7Fx   	 B1N7Fy   	B1N8Theta 	B1N8Psi   	B1N8Vx    	B1N8Vy    	 B1N8AxInd	 B1N8TanIn	B1N8IndVel	 B1N8Phi  	 B1N8AOA  	 B1N8Cl   	 B1N8Cd   	 B1N8Cx   	 B1N8Cy   	 B1N8Fx   	 B1N8Fy   	B1N9Theta 	B1N9Psi   	B1N9Vx    	B1N9Vy    	 B1N9AxInd	 B1N9TanIn	B1N9IndVel	 B1N9Phi  	 B1N9AOA  	 B1N9Cl   	 B1N9Cd   	 B1N9Cx   	 B1N9Cy   	 B1N9Fx   	 B1N9Fy   	B1N10Theta	B1N10Psi  	B1N10Vx   	B1N10Vy   	 B1N10AxIn	 B1N10TanI	B1N10IndVe	 B1N10Phi 	 B1N10AOA 	 B1N10Cl  	 B1N10Cd  	 B1N10Cx  	 B1N10Cy  	 B1N10Fx  	 B1N10Fy  	B1N11Theta	B1N11Psi  	B1N11Vx   	B1N11Vy   	 B1N11AxIn	 B1N11TanI	B1N11IndVe	 B1N11Phi 	 B1N11AOA 	 B1N11Cl  	 B1N11Cd  	 B1N11Cx  	 B1N11Cy  	 B1N11Fx  	 B1N11Fy  	B1N12Theta	B1N12Psi  	B1N12Vx   	B1N12Vy   	 B1N12AxIn	 B1N12TanI	B1N12IndVe	 B1N12Phi 	 B1N12AOA 	 B1N12Cl  	 B1N12Cd  	 B1N12Cx  	 B1N12Cy  	 B1N12Fx  	 B1N12Fy  	B1N13Theta	B1N13Psi  	B1N13Vx   	B1N13Vy   	 B1N13AxIn	 B1N13TanI	B1N13IndVe	 B1N13Phi 	 B1N13AOA 	 B1N13Cl  	 B1N13Cd  	 B1N13Cx  	 B1N13Cy  	 B1N13Fx  	 B1N13Fy  	B1N14Theta	B1N14Psi  	B1N14Vx   	B1N14Vy   	 B1N14AxIn	 B1N14TanI	B1N14IndVe	 B1N14Phi 	 B1N14AOA 	 B1N14Cl  	 B1N14Cd  	 B1N14Cx  	 B1N14Cy  	 B1N14Fx  	 B1N14Fy  	B1N15Theta	B1N15Psi  	B1N15Vx   	B1N15Vy   	 B1N15AxIn	 B1N15TanI	B1N15IndVe	 B1N15Phi 	 B1N15AOA 	 B1N15Cl  	 B1N15Cd  	 B1N15Cx  	 B1N15Cy  	 B1N15Fx  	 B1N15Fy  	B1N16Theta	B1N16Psi  	B1N16Vx   	B1N16Vy   	 B1N16AxIn	 B1N16TanI	B1N16IndVe	 B1N16Phi 	 B1N16AOA 	 B1N16Cl  	 B1N16Cd  	 B1N16Cx  	 B1N16Cy  	 B1N16Fx  	 B1N16Fy  	B1N17Theta	B1N17Psi  	B1N17Vx   	B1N17Vy   	 B1N17AxIn	 B1N17TanI	B1N17IndVe	 B1N17Phi 	 B1N17AOA 	 B1N17Cl  	 B1N17Cd  	 B1N17Cx  	 B1N17Cy  	 B1N17Fx  	 B1N17Fy  	B1N18Theta	B1N18Psi  	B1N18Vx   	B1N18Vy   	 B1N18AxIn	 B1N18TanI	B1N18IndVe	 B1N18Phi 	 B1N18AOA 	 B1N18Cl  	 B1N18Cd  	 B1N18Cx  	 B1N18Cy  	 B1N18Fx  	 B1N18Fy  	B1N19Theta	B1N19Psi  	B1N19Vx   	B1N19Vy   	 B1N19AxIn	 B1N19TanI	B1N19IndVe	 B1N19Phi 	 B1N19AOA 	 B1N19Cl  	 B1N19Cd  	 B1N19Cx  	 B1N19Cy  	 B1N19Fx  	 B1N19Fy  	B1N20Theta	B1N20Psi  	B1N20Vx   	B1N20Vy   	 B1N20AxIn	 B1N20TanI	B1N20IndVe	 B1N20Phi 	 B1N20AOA 	 B1N20Cl  	 B1N20Cd  	 B1N20Cx  	 B1N20Cy  	 B1N20Fx  	 B1N20Fy  	B1N21Theta	B1N21Psi  	B1N21Vx   	B1N21Vy   	 B1N21AxIn	 B1N21TanI	B1N21IndVe	 B1N21Phi 	 B1N21AOA 	 B1N21Cl  	 B1N21Cd  	 B1N21Cx  	 B1N21Cy  	 B1N21Fx  	 B1N21Fy  	B1N22Theta	B1N22Psi  	B1N22Vx   	B1N22Vy   	 B1N22AxIn	 B1N22TanI	B1N22IndVe	 B1N22Phi 	 B1N22AOA 	 B1N22Cl  	 B1N22Cd  	 B1N22Cx  	 B1N22Cy  	 B1N22Fx  	 B1N22Fy  	B2N1Theta 	B2N1Psi   	B2N1Vx    	B2N1Vy    	 B2N1AxInd	 B2N1TanIn	B2N1IndVel	 B2N1Phi  	 B2N1AOA  	 B2N1Cl   	 B2N1Cd   	 B2N1Cx   	 B2N1Cy   	 B2N1Fx   	 B2N1Fy   	B2N2Theta 	B2N2Psi   	B2N2Vx    	B2N2Vy    	 B2N2AxInd	 B2N2TanIn	B2N2IndVel	 B2N2Phi  	 B2N2AOA  	 B2N2Cl   	 B2N2Cd   	 B2N2Cx   	 B2N2Cy   	 B2N2Fx   	 B2N2Fy   	B2N3Theta 	B2N3Psi   	B2N3Vx    	B2N3Vy    	 B2N3AxInd	 B2N3TanIn	B2N3IndVel	 B2N3Phi  	 B2N3AOA  	 B2N3Cl   	 B2N3Cd   	 B2N3Cx   	 B2N3Cy   	 B2N3Fx   	 B2N3Fy   	B2N4Theta 	B2N4Psi   	B2N4Vx    	B2N4Vy    	 B2N4AxInd	 B2N4TanIn	B2N4IndVel	 B2N4Phi  	 B2N4AOA  	 B2N4Cl   	 B2N4Cd   	 B2N4Cx   	 B2N4Cy   	 B2N4Fx   	 B2N4Fy   	B2N5Theta 	B2N5Psi   	B2N5Vx    	B2N5Vy    	 B2N5AxInd	 B2N5TanIn	B2N5IndVel	 B2N5Phi  	 B2N5AOA  	 B2N5Cl   	 B2N5Cd   	 B2N5Cx   	 B2N5Cy   	 B2N5Fx   	 B2N5Fy   	B2N6Theta 	B2N6Psi   	B2N6Vx    	B2N6Vy    	 B2N6AxInd	 B2N6TanIn	B2N6IndVel	 B2N6Phi  	 B2N6AOA  	 B2N6Cl   	 B2N6Cd   	 B2N6Cx   	 B2N6Cy   	 B2N6Fx   	 B2N6Fy   	B2N7Theta 	B2N7Psi   	B2N7Vx    	B2N7Vy    	 B2N7AxInd	 B2N7TanIn	B2N7IndVel	 B2N7Phi  	 B2N7AOA  	 B2N7Cl   	 B2N7Cd   	 B2N7Cx   	 B2N7Cy   	 B2N7Fx   	 B2N7Fy   	B2N8Theta 	B2N8Psi   	B2N8Vx    	B2N8Vy    	 B2N8AxInd	 B2N8TanIn	B2N8IndVel	 B2N8Phi  	 B2N8AOA  	 B2N8Cl   	 B2N8Cd   	 B2N8Cx   	 B2N8Cy   	 B2N8Fx   	 B2N8Fy   	B2N9Theta 	B2N9Psi   	B2N9Vx    	B2N9Vy    	 B2N9AxInd	 B2N9TanIn	B2N9IndVel	 B2N9Phi  	 B2N9AOA  	 B2N9Cl   	 B2N9Cd   	 B2N9Cx   	 B2N9Cy   	 B2N9Fx   	 B2N9Fy   	B2N10Theta	B2N10Psi  	B2N10Vx   	B2N10Vy   	 B2N10AxIn	 B2N10TanI	B2N10IndVe	 B2N10Phi 	 B2N10AOA 	 B2N10Cl  	 B2N10Cd  	 B2N10Cx  	 B2N10Cy  	 B2N10Fx  	 B2N10Fy  	B2N11Theta	B2N11Psi  	B2N11Vx   	B2N11Vy   	 B2N11AxIn	 B2N11TanI	B2N11IndVe	 B2N11Phi 	 B2N11AOA 	 B2N11Cl  	 B2N11Cd  	 B2N11Cx  	 B2N11Cy  	 B2N11Fx  	 B2N11Fy  	B2N12Theta	B2N12Psi  	B2N12Vx   	B2N12Vy   	 B2N12AxIn	 B2N12TanI	B2N12IndVe	 B2N12Phi 	 B2N12AOA 	 B2N12Cl  	 B2N12Cd  	 B2N12Cx  	 B2N12Cy  	 B2N12Fx  	 B2N12Fy  	B2N13Theta	B2N13Psi  	B2N13Vx   	B2N13Vy   	 B2N13AxIn	 B2N13TanI	B2N13IndVe	 B2N13Phi 	 B2N13AOA 	 B2N13Cl  	 B2N13Cd  	 B2N13Cx  	 B2N13Cy  	 B2N13Fx  	 B2N13Fy  	B2N14Theta	B2N14Psi  	B2N14Vx   	B2N14Vy   	 B2N14AxIn	 B2N14TanI	B2N14IndVe	 B2N14Phi 	 B2N14AOA 	 B2N14Cl  	 B2N14Cd  	 B2N14Cx  	 B2N14Cy  	 B2N14Fx  	 B2N14Fy  	B2N15Theta	B2N15Psi  	B2N15Vx   	B2N15Vy   	 B2N15AxIn	 B2N15TanI	B2N15IndVe	 B2N15Phi 	 B2N15AOA 	 B2N15Cl  	 B2N15Cd  	 B2N15Cx  	 B2N15Cy  	 B2N15Fx  	 B2N15Fy  	B2N16Theta	B2N16Psi  	B2N16Vx   	B2N16Vy   	 B2N16AxIn	 B2N16TanI	B2N16IndVe	 B2N16Phi 	 B2N16AOA 	 B2N16Cl  	 B2N16Cd  	 B2N16Cx  	 B2N16Cy  	 B2N16Fx  	 B2N16Fy  	B2N17Theta	B2N17Psi  	B2N17Vx   	B2N17Vy   	 B2N17AxIn	 B2N17TanI	B2N17IndVe	 B2N17Phi 	 B2N17AOA 	 B2N17Cl  	 B2N17Cd  	 B2N17Cx  	 B2N17Cy  	 B2N17Fx  	 B2N17Fy  	B2N18Theta	B2N18Psi  	B2N18Vx   	B2N18Vy   	 B2N18AxIn	 B2N18TanI	B2N18IndVe	 B2N18Phi 	 B2N18AOA 	 B2N18Cl  	 B2N18Cd  	 B2N18Cx  	 B2N18Cy  	 B2N18Fx  	 B2N18Fy  	B2N19Theta	B2N19Psi  	B2N19Vx   	B2N19Vy   	 B2N19AxIn	 B2N19TanI	B2N19IndVe	 B2N19Phi 	 B2N19AOA 	 B2N19Cl  	 B2N19Cd  	 B2N19Cx  	 B2N19Cy  	 B2N19Fx  	 B2N19Fy  	B2N20Theta	B2N20Psi  	B2N20Vx   	B2N20Vy   	 B2N20AxIn	 B2N20TanI	B2N20IndVe	 B2N20Phi 	 B2N20AOA 	 B2N20Cl  	 B2N20Cd  	 B2N20Cx  	 B2N20Cy  	 B2N20Fx  	 B2N20Fy  	B2N21Theta	B2N21Psi  	B2N21Vx   	B2N21Vy   	 B2N21AxIn	 B2N21TanI	B2N21IndVe	 B2N21Phi 	 B2N21AOA 	 B2N21Cl  	 B2N21Cd  	 B2N21Cx  	 B2N21Cy  	 B2N21Fx  	 B2N21Fy  	B2N22Theta	B2N22Psi  	B2N22Vx   	B2N22Vy   	 B2N22AxIn	 B2N22TanI	B2N22IndVe	 B2N22Phi 	 B2N22AOA 	 B2N22Cl  	 B2N22Cd  	 B2N22Cx  	 B2N22Cy  	 B2N22Fx  	 B2N22Fy  
      (s)           	  (deg)   	  (deg)   	  (m/s)   	  (m/s)   	  (deg)   	  (deg)   	  (m/s)   	  (deg)   	  (deg)   	   (-)    	   (-)    	   (-)    	   (-)    	  (N/m)   	  (N/m)   	  (deg)   	  (deg)   	  (m/s)   	  (m/s)   	  (deg)   	  (deg)   	  (m/s)   	  (deg)   	  (deg)   	   (-)    	   (-)    	   (-)    	   (-)    	  (N/m)   	  (N/m)   	  (deg)   	  (deg)   	  (m/s)   	  (m/s)   	  (deg)   	  (deg)   	  (m/s)   	  (deg)   	  (deg)   	   (-)    	   (-)    	   (-)    	   (-)    	  (N/m)   	  (N/m)   	  (deg)   	  (deg)   	  (m/s)   	  (m/s)   	  (deg)   	  (deg)   	  (m/s)   	  (deg)   	  (deg)   	   (-)    	   (-)    	   (-)    	   (-)    	  (N/m)   	  (N/m)   	  (deg)   	  (deg)   	  (m/s)   	  (m/s)   	  (deg)   	  (deg)   	  (m/s)   	  (deg)   	  (deg)   	   (-)    	   (-)    	   (-)    	   (-)    	  (N/m)   	  (N/m)   	  (deg)   	  (deg)   	  (m/s)   	  (m/s)   	  (deg)   	  (deg)   	  (m/s)   	  (deg)   	  (deg)   	   (-)    	   (-)    	   (-)    	   (-)    	  (N/m)   	  (N/m)   	  (deg)   	  (deg)   	  (m/s)   	  (m/s)   	  (deg)   	  (deg)   	  (m/s)   	  (deg)   	  (deg)   	   (-)    	   (-)    	   (-)    	   (-)    	  (N/m)   	  (N/m)   	  (deg)   	  (deg)   	  (m/s)   	  (m/s)   	  (deg)   	  (deg)   	  (m/s)   	  (deg)   	  (deg)   	   (-)    	   (-)    	   (-)    	   (-)    	  (N/m)   	  (N/m)   	  (deg)   	  (deg)   	  (m/s)   	  (m/s)   	  (deg)   	  (deg)   	  (m/s)   	  (deg)   	  (deg)   	   (-)    	   (-)    	   (-)    	   (-)    	  (N/m)   	  (N/m)   	  (deg)   	  (deg)   	  (m/s)   	  (m/s)   	  (deg)   	  (deg)   	  (m/s)   	  (deg)   	  (deg)   	   (-)    	   (-)    	   (-)    	   (-)    	  (N/m)   	  (N/m)   	  (deg)   	  (deg)   	  (m/s)   	  (m/s)   	  (deg)   	  (deg)   	  (m/s)   	  (deg)   	  (deg)   	   (-)    	   (-)    	   (-)    	   (-)    	  (N/m)   	  (N/m)   	  (deg)   	  (deg)   	  (m/s)   	  (m/s)   	  (deg)   	  (deg)   	  (m/s)   	  (deg)   	  (deg)   	   (-)    	   (-)    	   (-)    	   (-)    	  (N/m)   	  (N/m)   	  (deg)   	  (deg)   	  (m/s)   	  (m/s)   	  (deg)   	  (deg)   	  (m/s)   	  (deg)   	  (deg)   	   (-)    	   (-)    	   (-)    	   (-)    	  (N/m)   	  (N/m)   	  (deg)   	  (deg)   	  (m/s)   	  (m/s)   	  (deg)   	  (deg)   	  (m/s)   	  (deg)   	  (deg)   	   (-)    	   (-)    	   (-)    	   (-)    	  (N/m)   	  (N/m)   	  (deg)   	  (deg)   	  (m/s)   	  (m/s)   	  (deg)   	  (deg)   	  (m/s)   	  (deg)   	  (deg)   	   (-)    	   (-)    	   (-)    	   (-)    	  (N/m)   	  (N/m)   	  (deg)   	  (deg)   	  (m/s)   	  (m/s)   	  (deg)   	  (deg)   	  (m/s)   	  (deg)   	  (deg)   	   (-)    	   (-)    	   (-)    	   (-)    	  (N/m)   	  (N/m)   	  (deg)   	  (deg)   	  (m/s)   	  (m/s)   	  (deg)   	  (deg)   	  (m/s)   	  (deg)   	  (deg)   	   (-)    	   (-)    	   (-)    	   (-)    	  (N/m)   	  (N/m)   	  (deg)   	  (deg)   	  (m/s)   	  (m/s)   	  (deg)   	  (deg)   	  (m/s)   	  (deg)   	  (deg)   	   (-)    	   (-)    	   (-)    	   (-)    	  (N/m)   	  (N/m)   	  (deg)   	  (deg)   	  (m/s)   	  (m/s)   	  (deg)   	  (deg)   	  (m/s)   	  (deg)   	  (deg)   	   (-)    	   (-)    	   (-)    	   (-)    	  (N/m)   	  (N/m)   	  (deg)   	  (deg)   	  (m/s)   	  (m/s)   	  (deg)   	  (deg)   	  (m/s)   	  (deg)   	  (deg)   	   (-)    	   (-)    	   (-)    	   (-)    	  (N/m)   	  (N/m)   	  (deg)   	  (deg)   	  (m/s)   	  (m/s)   	  (deg)   	  (deg)   	  (m/s)   	  (deg)   	  (deg)   	   (-)    	   (-)    	   (-)    	   (-)    	  (N/m)   	  (N/m)   	  (deg)   	  (deg)   	  (m/s)   	  (m/s)   	  (deg)   	  (deg)   	  (m/s)   	  (deg)   	  (deg)   	   (-)    	   (-)    	   (-)    	   (-)    	  (N/m)   	  (N/m)   	  (deg)   	  (deg)   	  (m/s)   	  (m/s)   	  (deg)   	  (deg)   	  (m/s)   	  (deg)   	  (deg)   	   (-)    	   (-)    	   (-)    	   (-)    	  (N/m)   	  (N/m)   	  (deg)   	  (deg)   	  (m/s)   	  (m/s)   	  (deg)   	  (deg)   	  (m/s)   	  (deg)   	  (deg)   	   (-)    	   (-)    	   (-)    	   (-)    	  (N/m)   	  (N/m)   	  (deg)   	  (deg)   	  (m/s)   	  (m/s)   	  (deg)   	  (deg)   	  (m/s)   	  (deg)   	  (deg)   	   (-)    	   (-)    	   (-)    	   (-)    	  (N/m)   	  (N/m)   	  (deg)   	  (deg)   	  (m/s)   	  (m/s)   	  (deg)   	  (deg)   	  (m/s)   	  (deg)   	  (deg)   	   (-)    	   (-)    	   (-)    	   (-)    	  (N/m)   	  (N/m)   	  (deg)   	  (deg)   	  (m/s)   	  (m/s)   	  (deg)   	  (deg)   	  (m/s)   	  (deg)   	  (deg)   	   (-)    	   (-)    	   (-)    	   (-)    	  (N/m)   	  (N/m)   	  (deg)   	  (deg)   	  (m/s)   	  (m/s)   	  (deg)   	  (deg)   	  (m/s)   	  (deg)   	  (deg)   	   (-)    	   (-)    	   (-)    	   (-)    	  (N/m)   	  (N/m)   	  (deg)   	  (deg)   	  (m/s)   	  (m/s)   	  (deg)   	  (deg)   	  (m/s)   	  (deg)   	  (deg)   	   (-)    	   (-)    	   (-)    	   (-)    	  (N/m)   	  (N/m)   	  (deg)   	  (deg)   	  (m/s)   	  (m/s)   	  (deg)   	  (deg)   	  (m/s)   	  (deg)   	  (deg)   	   (-)    	   (-)    	   (-)    	   (-)    	  (N/m)   	  (N/m)   	  (deg)   	  (deg)   	  (m/s)   	  (m/s)   	  (deg)   	  (deg)   	  (m/s)   	  (deg)   	  (deg)   	   (-)    	   (-)    	   (-)    	   (-)    	  (N/m)   	  (N/m)   	  (deg)   	  (deg)   	  (m/s)   	  (m/s)   	  (deg)   	  (deg)   	  (m/s)   	  (deg)   	  (deg)   	   (-)    	   (-)    	   (-)    	   (-)    	  (N/m)   	  (N/m)   	  (deg)   	  (deg)   	  (m/s)   	  (m/s)   	  (deg)   	  (deg)   	  (m/s)   	  (deg)   	  (deg)   	   (-)    	   (-)    	   (-)    	   (-)    	  (N/m)   	  (N/m)   	  (deg)   	  (deg)   	  (m/s)   	  (m/s)   	  (deg)   	  (deg)   	  (m/s)   	  (deg)   	  (deg)   	   (-)    	   (-)    	   (-)    	   (-)    	  (N/m)   	  (N/m)   	  (deg)   	  (deg)   	  (m/s)   	  (m/s)   	  (deg)   	  (deg)   	  (m/s)   	  (deg)   	  (deg)   	   (-)    	   (-)    	   (-)    	   (-)    	  (N/m)   	  (N/m)   	  (deg)   	  (deg)   	  (m/s)   	  (m/s)   	  (deg)   	  (deg)   	  (m/s)   	  (deg)   	  (deg)   	   (-)    	   (-)    	   (-)    	   (-)    	  (N/m)   	  (N/m)   	  (deg)   	  (deg)   	  (m/s)   	  (m/s)   	  (deg)   	  (deg)   	  (m/s)   	  (deg)   	  (deg)   	   (-)    	   (-)    	   (-)    	   (-)    	  (N/m)   	  (N/m)   	  (deg)   	  (deg)   	  (m/s)   	  (m/s)   	  (deg)   	  (deg)   	  (m/s)   	  (deg)   	  (deg)   	   (-)    	   (-)    	   (-)    	   (-)    	  (N/m)   	  (N/m)   	  (deg)   	  (deg)   	  (m/s)   	  (m/s)   	  (deg)   	  (deg)   	  (m/s)   	  (deg)   	  (deg)   	   (-)    	   (-)    	   (-)    	   (-)    	  (N/m)   	  (N/m)   	  (deg)   	  (deg)   	  (m/s)   	  (m/s)   	  (deg)   	  (deg)   	  (m/s)   	  (deg)   	  (deg)   	   (-)    	   (-)    	   (-)    	   (-)    	  (N/m)   	  (N/m)   	  (deg)   	  (deg)   	  (m/s)   	  (m/s)   	  (deg)   	  (deg)   	  (m/s)   	  (deg)   	  (deg)   	   (-)    	   (-)    	   (-)    	   (-)    	  (N/m)   	  (N/m)   	  (deg)   	  (deg)   	  (m/s)   	  (m/s)   	  (deg)   	  (deg)   	  (m/s)   	  (deg)   	  (deg)   	   (-)    	   (-)    	   (-)    	   (-)    	  (N/m)   	  (N/m)   	  (deg)   	  (deg)   	  (m/s)   	  (m/s)   	  (deg)   	  (deg)   	  (m/s)   	  (deg)   	  (deg)   	   (-)    	   (-)    	   (-)    	   (-)    	  (N/m)   	  (N/m)   	  (deg)   	  (deg)   	  (m/s)   	  (m/s)   	  (deg)   	  (deg)   	  (m/s)   	  (deg)   	  (deg)   	   (-)    	   (-)    	   (-)    	   (-)    	  (N/m)   	  (N/m)   
         0.0000	 3.000E+00	 0.000E+00	 1.000E+01	 3.806E+00	 1.000E+00	-1.000E+00	 0.000E+00	 1.978E-02	-2.980E+00	 0.000E+00	 3.000E-01	 1.036E-04	-3.000E-01	 0.000E+00	 0.000E+00	 3.000E+00	 0.000E+00	 1.000E+01	 8.346E+00	 7.050E-03	-7.050E-03	 1.293E+01	 5.015E+01	 4.715E+01	 0.000E+00	 3.000E-01	 2.303E-01	-1.922E-01	 5.169E+00	 4.314E+00	 2.902E+00	 0.000E+00	 1.000E+01	 1.040E+01	 4.708E-02	 2.077E-02	 1.426E+01	 4.191E+01	 3.901E+01	 2.109E+00	 6.559E-01	 2.008E+00	 9.209E-01	 4.531E+01	-2.078E+01	 2.242E+01	 0.000E+00	 1.000E+01	 1.304E+01	 9.133E-02	 4.402E-02	 1.636E+01	 3.373E+01	 1.131E+01	 1.096E+00	 3.033E-02	 9.286E-01	 5.835E-01	 1.088E+02	-6.836E+01	 1.732E+01	 0.000E+00	 1.000E+01	 1.511E+01	 1.046E-01	 3.634E-02	 1.804E+01	 2.976E+01	 1.245E+01	 1.133E+00	 4.083E-02	 1.003E+00	 5.268E-01	 1.422E+02	-7.466E+01	 1.397E+01	 0.000E+00	 1.000E+01	 1.662E+01	 1.117E-01	 3.091E-02	 1.930E+01	 2.741E+01	 1.344E+01	 1.149E+00	 5.446E-02	 1.046E+00	 4.809E-01	 1.648E+02	-7.580E+01	 1.124E+01	 0.000E+00	 1.000E+01	 1.825E+01	 1.154E-01	 2.569E-02	 2.070E+01	 2.530E+01	 1.405E+01	 1.135E+00	 6.306E-02	 1.053E+00	 4.280E-01	 1.847E+02	-7.507E+01	 9.164E+00	 0.000E+00	 1.000E+01	 1.988E+01	 1.069E-01	 1.947E-02	 2.215E+01	 2.378E+01	 1.462E+01	 1.015E+00	 6.892E-02	 9.570E-01	 3.464E-01	 1.861E+02	-6.736E+01	 7.689E+00	 0.000E+00	 1.000E+01	 2.139E+01	 1.111E-01	 1.726E-02	 2.350E+01	 2.222E+01	 1.453E+01	 1.014E+00	 6.813E-02	 9.649E-01	 3.206E-01	 2.048E+02	-6.803E+01	 6.499E+00	 0.000E+00	 1.000E+01	 2.289E+01	 1.150E-01	 1.544E-02	 2.488E+01	 2.084E+01	 1.434E+01	 1.012E+00	 6.629E-02	 9.694E-01	 2.981E-01	 2.227E+02	-6.849E+01	 5.478E+00	 0.000E+00	 1.000E+01	 2.453E+01	 1.191E-01	 1.387E-02	 2.638E+01	 1.950E+01	 1.403E+01	 1.007E+00	 6.274E-02	 9.705E-01	 2.772E-01	 2.417E+02	-6.904E+01	 4.686E+00	 0.000E+00	 1.000E+01	 2.616E+01	 1.229E-01	 1.262E-02	 2.791E+01	 1.832E+01	 1.363E+01	 1.000E+00	 5.732E-02	 9.675E-01	 2.600E-01	 2.590E+02	-6.959E+01	 4.115E+00	 0.000E+00	 1.000E+01	 2.767E+01	 1.267E-01	 1.174E-02	 2.932E+01	 1.733E+01	 1.321E+01	 9.903E-01	 5.107E-02	 9.606E-01	 2.462E-01	 2.743E+02	-7.029E+01	 3.666E+00	 0.000E+00	 1.000E+01	 2.917E+01	 1.303E-01	 1.097E-02	 3.075E+01	 1.643E+01	 1.276E+01	 9.765E-01	 4.484E-02	 9.493E-01	 2.332E-01	 2.871E+02	-7.052E+01	 3.267E+00	 0.000E+00	 1.000E+01	 3.081E+01	 1.341E-01	 1.023E-02	 3.230E+01	 1.555E+01	 1.228E+01	 9.579E-01	 3.890E-02	 9.333E-01	 2.193E-01	 2.978E+02	-6.997E+01	 2.921E+00	 0.000E+00	 1.000E+01	 3.244E+01	 1.395E-01	 9.649E-03	 3.386E+01	 1.472E+01	 1.180E+01	 9.364E-01	 3.392E-02	 9.142E-01	 2.051E-01	 3.071E+02	-6.889E+01	 2.619E+00	 0.000E+00	 1.000E+01	 3.395E+01	 1.471E-01	 9.268E-03	 3.531E+01	 1.398E+01	 1.136E+01	 9.211E-01	 3.063E-02	 9.013E-01	 1.928E-01	 3.146E+02	-6.730E+01	 2.321E+00	 0.000E+00	 1.000E+01	 3.545E+01	 1.617E-01	 9.191E-03	 3.675E+01	 1.319E+01	 1.086E+01	 9.195E-01	 2.880E-02	 9.018E-01	 1.817E-01	 3.261E+02	-6.570E+01	 2.067E+00	 0.000E+00	 1.000E+01	 3.677E+01	 1.837E-01	 9.430E-03	 3.801E+01	 1.240E+01	 1.034E+01	 9.280E-01	 2.776E-02	 9.123E-01	 1.722E-01	 3.383E+02	-6.386E+01	 1.816E+00	 0.000E+00	 1.000E+01	 3.809E+01	 2.206E-01	 1.013E-02	 3.926E+01	 1.145E+01	 9.634E+00	 9.324E-01	 2.493E-02	 9.188E-01	 1.607E-01	 3.479E+02	-6.084E+01	 1.534E+00	 0.000E+00	 1.000E+01	 3.960E+01	 3.193E-01	 1.220E-02	 4.066E+01	 9.639E+00	 8.105E+00	 9.002E-01	 1.622E-02	 8.902E-01	 1.347E-01	 3.435E+02	-5.198E+01	 1.289E+00	 0.000E+00	 1.000E+01	 4.092E+01	 1.000E+00	-1.000E+00	 0.000E+00	 1.978E-02	-1.269E+00	-1.198E-01	 1.188E-02	-1.198E-01	-1.192E-02	 0.000E+00	 0.000E+00	 3.000E+00	-1.800E+02	 1.000E+01	 3.806E+00	 1.000E+00	-1.000E+00	 0.000E+00	 1.978E-02	-2.980E+00	 0.000E+00	 3.000E-01	 1.036E-04	-3.000E-01	 0.000E+00	 0.000E+00	 3.000E+00	-1.800E+02	 1.000E+01	 8.346E+00	 7.050E-03	-7.050E-03	 1.293E+01	 5.015E+01	 4.715E+01	 0.000E+00	 3.000E-01	 2.303E-01	-1.922E-01	 5.169E+00	 4.314E+00	 2.902E+00	-1.800E+02	 1.000E+01	 1.040E+01	 4.708E-02	 2.077E-02	 1.426E+01	 4.191E+01	 3.901E+01	 2.109E+00	 6.559E-01	 2.008E+00	 9.209E-01	 4.531E+01	-2.078E+01	 2.242E+01	-1.800E+02	 1.000E+01	 1.304E+01	 9.133E-02	 4.402E-02	 1.636E+01	 3.373E+01	 1.131E+01	 1.096E+00	 3.033E-02	 9.286E-01	 5.835E-01	 1.088E+02	-6.836E+01	 1.732E+01	-1.800E+02	 1.000E+01	 1.511E+01	 1.046E-01	 3.634E-02	 1.804E+01	 2.976E+01	 1.245E+01	 1.133E+00	 4.083E-02	 1.003E+00	 5.268E-01	 1.422E+02	-7.466E+01	 1.397E+01	-1.800E+02	 1.000E+01	 1.662E+01	 1.117E-01	 3.091E-02	 1.930E+01	 2.741E+01	 1.344E+01	 1.149E+00	 5.446E-02	 1.046E+00	 4.809E-01	 1.648E+02	-7.580E+01	 1.124E+01	-1.800E+02	 1.000E+01	 1.825E+01	 1.154E-01	 2.569E-02	 2.070E+01	 2.530E+01	 1.405E+01	 1.135E+00	 6.306E-02	 1.053E+00	 4.280E-01	 1.847E+02	-7.507E+01	 9.164E+00	-1.800E+02	 1.000E+01	 1.988E+01	 1.069E-01	 1.947E-02	 2.215E+01	 2.378E+01	 1.462E+01	 1.015E+00	 6.892E-02	 9.570E-01	 3.464E-01	 1.861E+02	-6.736E+01	 7.689E+00	-1.800E+02	 1.000E+01	 2.139E+01	 1.111E-01	 1.726E-02	 2.350E+01	 2.222E+01	 1.453E+01	 1.014E+00	 6.813E-02	 9.649E-01	 3.206E-01	 2.048E+02	-6.803E+01	 6.499E+00	-1.800E+02	 1.000E+01	 2.289E+01	 1.150E-01	 1.544E-02	 2.488E+01	 2.084E+01	 1.434E+01	 1.012E+00	 6.629E-02	 9.694E-01	 2.981E-01	 2.227E+02	-6.849E+01	 5.478E+00	-1.800E+02	 1.000E+01	 2.453E+01	 1.191E-01	 1.387E-02	 2.638E+01	 1.950E+01	 1.403E+01	 1.007E+00	 6.274E-02	 9.705E-01	 2.772E-01	 2.417E+02	-6.904E+01	 4.686E+00	-1.800E+02	 1.000E+01	 2.616E+01	 1.229E-01	 1.262E-02	 2.791E+01	 1.832E+01	 1.363E+01	 1.000E+00	 5.732E-02	 9.675E-01	 2.600E-01	 2.590E+02	-6.959E+01	 4.115E+00	-1.800E+02	 1.000E+01	 2.767E+01	 1.267E-01	 1.174E-02	 2.932E+01	 1.733E+01	 1.321E+01	 9.903E-01	 5.107E-02	 9.606E-01	 2.462E-01	 2.743E+02	-7.029E+01	 3.666E+00	-1.800E+02	 1.000E+01	 2.917E+01	 1.303E-01	 1.097E-02	 3.075E+01	 1.643E+01	 1.276E+01	 9.765E-01	 4.484E-02	 9.493E-01	 2.332E-01	 2.871E+02	-7.052E+01	 3.267E+00	-1.800E+02	 1.000E+01	 3.081E+01	 1.341E-01	 1.023E-02	 3.230E+01	 1.555E+01	 1.228E+01	 9.579E-01	 3.890E-02	 9.333E-01	 2.193E-01	 2.978E+02	-6.997E+01	 2.921E+00	-1.800E+02	 1.000E+01	 3.244E+01	 1.395E-01	 9.649E-03	 3.386E+01	 1.472E+01	 1.180E+01	 9.364E-01	 3.392E-02	 9.142E-01	 2.051E-01	 3.071E+02	-6.889E+01	 2.619E+00	-1.800E+02	 1.000E+01	 3.395E+01	 1.471E-01	 9.268E-03	 3.531E+01	 1.398E+01	 1.136E+01	 9.211E-01	 3.063E-02	 9.013E-01	 1.928E-01	 3.146E+02	-6.730E+01	 2.321E+00	-1.800E+02	 1.000E+01	 3.545E+01	 1.617E-01	 9.191E-03	 3.675E+01	 1.319E+01	 1.086E+01	 9.195E-01	 2.880E-02	 9.018E-01	 1.817E-01	 3.261E+02	-6.570E+01	 2.067E+00	-1.800E+02	 1.000E+01	 3.677E+01	 1.837E-01	 9.430E-03	 3.801E+01	 1.240E+01	 1.034E+01	 9.280E-01	 2.776E-02	 9.123E-01	 1.722E-01	 3.383E+02	-6.386E+01	 1.816E+00	-1.800E+02	 1.000E+01	 3.809E+01	 2.206E-01	 1.013E-02	 3.926E+01	 1.145E+01	 9.634E+00	 9.324E-01	 2.493E-02	 9.188E-01	 1.607E-01	 3.479E+02	-6.084E+01	 1.534E+00	-1.800E+02	 1.000E+01	 3.960E+01	 3.193E-01	 1.220E-02	 4.066E+01	 9.639E+00	 8.105E+00	 9.002E-01	 1.622E-02	 8.902E-01	 1.347E-01	 3.435E+02	-5.198E+01	 1.289E+00	-1.800E+02	 1.000E+01	 4.092E+01	 1.000E+00	-1.000E+00	 0.000E+00	 1.978E-02	-1.269E+00	-1.198E-01	 1.188E-02	-1.198E-01	-1.192E-02	 0.000E+00	 0.000E+00
         0.0052	 3.000E+00	 0.000E+00	 1.000E+01	 3.806E+00	 1.000E+00	-1.000E+00	 0.000E+00	 1.978E-02	-2.980E+00	 0.000E+00	 3.000E-01	 1.036E-04	-3.000E-01	 0.000E+00	 0.000E+00	 3.000E+00	 0.000E+00	 1.000E+01	 8.346E+00	 7.050E-03	-7.050E-03	 1.293E+01	 5.015E+01	 4.715E+01	 0.000E+00	 3.000E-01	 2.303E-01	-1.922E-01	 5.169E+00	 4.314E+00	 2.902E+00	 0.000E+00	 1.000E+01	 1.040E+01	 4.708E-02	 2.077E-02	 1.426E+01	 4.191E+01	 3.901E+01	 2.109E+00	 6.559E-01	 2.008E+00	 9.209E-01	 4.531E+01	-2.078E+01	 2.242E+01	 0.000E+00	 1.000E+01	 1.304E+01	 9.133E-02	 4.402E-02	 1.636E+01	 3.373E+01	 1.131E+01	 1.096E+00	 3.033E-02	 9.286E-01	 5.835E-01	 1.088E+02	-6.836E+01	 1.732E+01	 0.000E+00	 1.000E+01	 1.511E+01	 1.046E-01	 3.634E-02	 1.804E+01	 2.976E+01	 1.245E+01	 1.133E+00	 4.083E-02	 1.003E+00	 5.268E-01	 1.422E+02	-7.466E+01	 1.397E+01	 0.000E+00	 1.000E+01	 1.662E+01	 1.117E-01	 3.091E-02	 1.930E+01	 2.741E+01	 1.344E+01	 1.149E+00	 5.446E-02	 1.046E+00	 4.809E-01	 1.648E+02	-7.580E+01	 1.124E+01	 0.000E+00	 1.000E+01	 1.825E+01	 1.154E-01	 2.569E-02	 2.070E+01	 2.530E+01	 1.405E+01	 1.135E+00	 6.306E-02	 1.053E+00	 4.280E-01	 1.847E+02	-7.507E+01	 9.164E+00	 0.000E+00	 1.000E+01	 1.988E+01	 1.069E-01	 1.947E-02	 2.215E+01	 2.378E+01	 1.462E+01	 1.015E+00	 6.892E-02	 9.570E-01	 3.464E-01	 1.861E+02	-6.736E+01	 7.689E+00	 0.000E+00	 1.000E+01	 2.139E+01	 1.111E-01	 1.726E-02	 2.350E+01	 2.222E+01	 1.453E+01	 1.014E+00	 6.813E-02	 9.649E-01	 3.206E-01	 2.048E+02	-6.803E+01	 6.499E+00	 0.000E+00	 1.000E+01	 2.289E+01	 1.150E-01	 1.544E-02	 2.488E+01	 2.084E+01	 1.434E+01	 1.012E+00	 6.629E-02	 9.694E-01	 2.981E-01	 2.227E+02	-6.849E+01	 5.478E+00	 0.000E+00	 1.000E+01	 2.453E+01	 1.191E-01	 1.387E-02	 2.638E+01	 1.950E+01	 1.403E+01	 1.007E+00	 6.274E-02	 9.705E-01	 2.772E-01	 2.417E+02	-6.904E+01	 4.686E+00	 0.000E+00	 1.000E+01	 2.616E+01	 1.229E-01	 1.262E-02	 2.791E+01	 1.832E+01	 1.363E+01	 1.000E+00	 5.732E-02	 9.675E-01	 2.600E-01	 2.590E+02	-6.959E+01	 4.115E+00	 0.000E+00	 1.000E+01	 2.767E+01	 1.267E-01	 1.174E-02	 2.932E+01	 1.733E+01	 1.321E+01	 9.903E-01	 5.107E-02	 9.606E-01	 2.462E-01	 2.743E+02	-7.029E+01	 3.666E+00	 0.000E+00	 1.000E+01	 2.917E+01	 1.303E-01	 1.097E-02	 3.075E+01	 1.643E+01	 1.276E+01	 9.765E-01	 4.484E-02	 9.493E-01	 2.332E-01	 2.871E+02	-7.052E+01	 3.267E+00	 0.000E+00	 1.000E+01	 3.081E+01	 1.341E-01	 1.023E-02	 3.230E+01	 1.555E+01	 1.228E+01	 9.579E-01	 3.890E-02	 9.333E-01	 2.193E-01	 2.978E+02	-6.997E+01	 2.921E+00	 0.000E+00	 1.000E+01	 3.244E+01	 1.395E-01	 9.649E-03	 3.386E+01	 1.472E+01	 1.180E+01	 9.364E-01	 3.392E-02	 9.142E-01	 2.051E-01	 3.071E+02	-6.889E+01	 2.619E+00	 0.000E+00	 1.000E+01	 3.395E+01	 1.471E-01	 9.268E-03	 3.531E+01	 1.398E+01	 1.136E+01	 9.211E-01	 3.063E-02	 9.013E-01	 1.928E-01	 3.146E+02	-6.730E+01	 2.321E+00	 0.000E+00	 1.000E+01	 3.545E+01	 1.617E-01	 9.191E-03	 3.675E+01	 1.319E+01	 1.086E+01	 9.195E-01	 2.880E-02	 9.018E-01	 1.817E-01	 3.261E+02	-6.570E+01	 2.067E+00	 0.000E+00	 1.000E+01	 3.677E+01	 1.837E-01	 9.430E-03	 3.801E+01	 1.240E+01	 1.034E+01	 9.280E-01	 2.776E-02	 9.123E-01	 1.722E-01	 3.383E+02	-6.386E+01	 1.816E+00	 0.000E+00	 1.000E+01	 3.809E+01	 2.206E-01	 1.013E-02	 3.926E+01	 1.145E+01	 9.634E+00	 9.324E-01	 2.493E-02	 9.188E-01	 1.607E-01	 3.479E+02	-6.084E+01	 1.534E+00	 0.000E+00	 1.000E+01	 3.960E+01	 3.193E-01	 1.220E-02	 4.066E+01	 9.639E+00	 8.105E+00	 9.002E-01	 1.622E-02	 8.902E-01	 1.347E-01	 3.435E+02	-5.198E+01	 1.289E+00	 0.000E+00	 1.000E+01	 4.092E+01	 1.000E+00	-1.000E+00	 0.000E+00	 1.978E-02	-1.269E+00	-1.198E-01	 1.188E-02	-1.198E-01	-1.192E-02	 0.000E+00	 0.000E+00	 3.000E+00	-1.800E+02	 1.000E+01	 3.806E+00	 1.000E+00	-1.000E+00	 0.000E+00	 1.978E-02	-2.980E+00	 0.000E+00	 3.000E-01	 1.036E-04	-3.000E-01	 0.000E+00	 0.000E+00	 3.000E+00	-1.800E+02	 1.000E+01	 8.346E+00	 7.050E-03	-7.050E-03	 1.293E+01	 5.015E+01	 4.715E+01	 0.000E+00	 3.000E-01	 2.303E-01	-1.922E-01	 5.169E+00	 4.314E+00	 2.902E+00	-1.800E+02	 1.000E+01	 1.040E+01	 4.708E-02	 2.077E-02	 1.426E+01	 4.191E+01	 3.901E+01	 2.109E+00	 6.559E-01	 2.008E+00	 9.209E-01	 4.531E+01	-2.078E+01	 2.242E+01	-1.800E+02	 1.000E+01	 1.304E+01	 9.133E-02	 4.402E-02	 1.636E+01	 3.373E+01	 1.131E+01	 1.096E+00	 3.033E-02	 9.286E-01	 5.835E-01	 1.088E+02	-6.836E+01	 1.732E+01	-1.800E+02	 1.000E+01	 1.511E+01	 1.046E-01	 3.634E-02	 1.804E+01	 2.976E+01	 1.245E+01	 1.133E+00	 4.083E-02	 1.003E+00	 5.268E-01	 1.422E+02	-7.466E+01	 1.397E+01	-1.800E+02	 1.000E+01	 1.662E+01	 1.117E-01	 3.091E-02	 1.930E+01	 2.741E+01	 1.344E+01	 1.149E+00	 5.446E-02	 1.046E+00	 4.809E-01	 1.648E+02	-7.580E+01	 1.124E+01	-1.800E+02	 1.000E+01	 1.825E+01	 1.154E-01	 2.569E-02	 2.070E+01	 2.530E+01	 1.405E+01	 1.135E+00	 6.306E-02	 1.053E+00	 4.280E-01	 1.847E+02	-7.507E+01	 9.164E+00	-1.800E+02	 1.000E+01	 1.988E+01	 1.069E-01	 1.947E-02	 2.215E+01	 2.378E+01	 1.462E+01	 1.015E+00	 6.892E-02	 9.570E-01	 3.464E-01	 1.861E+02	-6.736E+01	 7.689E+00	-1.800E+02	 1.000E+01	 2.139E+01	 1.111E-01	 1.726E-02	 2.350E+01	 2.222E+01	 1.453E+01	 1.014E+00	 6.813E-02	 9.649E-01	 3.206E-01	 2.048E+02	-6.803E+01	 6.499E+00	-1.800E+02	 1.000E+01	 2.289E+01	 1.150E-01	 1.544E-02	 2.488E+01	 2.084E+01	 1.434E+01	 1.012E+00	 6.629E-02	 9.694E-01	 2.981E-01	 2.227E+02	-6.849E+01	 5.478E+00	-1.800E+02	 1.000E+01	 2.453E+01	 1.191E-01	 1.387E-02	 2.638E+01	 1.950E+01	 1.403E+01	 1.007E+00	 6.274E-02	 9.705E-01	 2.772E-01	 2.417E+02	-6.904E+01	 4.686E+00	-1.800E+02	 1.000E+01	 2.616E+01	 1.229E-01	 1.262E-02	 2.791E+01	 1.832E+01	 1.363E+01	 1.000E+00	 5.732E-02	 9.675E-01	 2.600E-01	 2.590E+02	-6.959E+01	 4.115E+00	-1.800E+02	 1.000E+01	 2.767E+01	 1.267E-01	 1.174E-02	 2.932E+01	 1.733E+01	 1.321E+01	 9.903E-01	 5.107E-02	 9.606E-01	 2.462E-01	 2.743E+02	-7.029E+01	 3.666E+00	-1.800E+02	 1.000E+01	 2.917E+01	 1.303E-01	 1.097E-02	 3.075E+01	 1.643E+01	 1.276E+01	 9.765E-01	 4.484E-02	 9.493E-01	 2.332E-01	 2.871E+02	-7.052E+01	 3.267E+00	-1.800E+02	 1.000E+01	 3.081E+01	 1.341E-01	 1.023E-02	 3.230E+01	 1.555E+01	 1.228E+01	 9.579E-01	 3.890E-02	 9.333E-01	 2.193E-01	 2.978E+02	-6.997E+01	 2.921E+00	-1.800E+02	 1.000E+01	 3.244E+01	 1.395E-01	 9.649E-03	 3.386E+01	 1.472E+01	 1.180E+01	 9.364E-01	 3.392E-02	 9.142E-01	 2.051E-01	 3.071E+02	-6.889E+01	 2.619E+00	-1.800E+02	 1.000E+01	 3.395E+01	 1.471E-01	 9.268E-03	 3.531E+01	 1.398E+01	 1.136E+01	 9.211E-01	 3.063E-02	 9.013E-01	 1.928E-01	 3.146E+02	-6.730E+01	 2.321E+00	-1.800E+02	 1.000E+01	 3.545E+01	 1.617E-01	 9.191E-03	 3.675E+01	 1.319E+01	 1.086E+01	 9.195E-01	 2.880E-02	 9.018E-01	 1.817E-01	 3.261E+02	-6.570E+01	 2.067E+00	-1.800E+02	 1.000E+01	 3.677E+01	 1.837E-01	 9.430E-03	 3.801E+01	 1.240E+01	 1.034E+01	 9.280E-01	 2.776E-02	 9.123E-01	 1.722E-01	 3.383E+02	-6.386E+01	 1.816E+00	-1.800E+02	 1.000E+01	 3.809E+01	 2.206E-01	 1.013E-02	 3.926E+01	 1.145E+01	 9.634E+00	 9.324E-01	 2.493E-02	 9.188E-01	 1.607E-01	 3.479E+02	-6.084E+01	 1.534E+00	-1.800E+02	 1.000E+01	 3.960E+01	 3.193E-01	 1.220E-02	 4.066E+01	 9.639E+00	 8.105E+00	 9.002E-01	 1.622E-02	 8.902E-01	 1.347E-01	 3.435E+02	-5.198E+01	 1.289E+00	-1.800E+02	 1.000E+01	 4.092E+01	 1.000E+00	-1.000E+00	 0.000E+00	 1.978E-02	-1.269E+00	-1.198E-01	 1.188E-02	-1.198E-01	-1.192E-02	 0.000E+00	 0.000E+00