
Predictions were generated on 26-Sep-2016 at 13:39:56 using AeroDyn_driver (v1.02.00a, 12-Apr-2016)
 AeroDyn (v15.03.00, 27-Jul-2016)

Case 1: WndSpeed=7 m/s; ShearExp=0 ; RotSpeed=12.1 rpm; Pitch=0 deg; Yaw=20 deg; dT=0.138 s; Tmax=22.794 s

     Time           	B1N1Alpha 	B1N1Cl    	B1N1Cd    	B1N1Cm    	B1N1AxInd 	B1N1TnInd 	B1N2Alpha 	B1N2Cl    	B1N2Cd    	B1N2Cm    	B1N2AxInd 	B1N2TnInd 	B1N3Alpha 	B1N3Cl    	B1N3Cd    	B1N3Cm    	B1N3AxInd 	B1N3TnInd 	B1N4Alpha 	B1N4Cl    	B1N4Cd    	B1N4Cm    	B1N4AxInd 	B1N4TnInd 	B1N5Alpha 	B1N5Cl    	B1N5Cd    	B1N5Cm    	B1N5AxInd 	B1N5TnInd 
      (s)           	(deg)     	(-)       	(-)       	(-)       	(-)       	(-)       	(deg)     	(-)       	(-)       	(-)       	(-)       	(-)       	(deg)     	(-)       	(-)       	(-)       	(-)       	(-)       	(deg)     	(-)       	(-)       	(-)       	(-)       	(-)       	(deg)     	(-)       	(-)       	(-)       	(-)       	(-)       
         0.0000	  2.554745E+001	  0.000000E+000	  3.500000E-001	  0.000000E+000	  0.000000E+000	  0.000000E+000	  6.480457E+000	  1.024725E+000	  1.435441E-002	 -9.729246E-002	  2.802957E-001	  5.310141E-002	  3.616961E+000	  6.897478E-001	  1.041903E-002	 -1.020814E-001	  2.559142E-001	  2.567142E-002	  1.154040E+000	  4.413714E-001	  8.832239E-003	 -1.113705E-001	  2.272963E-001	  9.546978E-003	  1.345129E-001	  4.614183E-001	  6.475586E-003	 -1.334759E-001	  2.897787E-001	  7.978919E-003
         0.1380	  2.542263E+001	 -1.490116E-008	  3.500000E-001	  0.000000E+000	  0.000000E+000	  0.000000E+000	  6.367636E+000	  1.011484E+000	  1.411164E-002	  0.000000E+000	  2.829638E-001	  5.264256E-002	  3.529925E+000	  6.780082E-001	  1.040511E-002	  0.000000E+000	  2.590057E-001	  2.549822E-002	  1.086436E+000	  4.324577E-001	  8.818373E-003	  0.000000E+000	  2.315779E-001	  9.504765E-003	  5.069110E-002	  4.506105E-001	  6.487850E-003	  0.000000E+000	  2.966294E-001	  7.952189E-003
         0.2760	  2.505593E+001	  0.000000E+000	  3.500000E-001	  0.000000E+000	  0.000000E+000	  0.000000E+000	  6.151829E+000	  9.963180E-001	  9.813339E-003	 -8.568811E-002	  2.856475E-001	  5.219147E-002	  3.382171E+000	  5.832756E-001	  1.030670E-002	 -9.608431E-002	  2.622656E-001	  2.534340E-002	  9.932956E-001	  4.143894E-001	  7.458448E-003	 -1.090861E-001	  2.359055E-001	  9.468299E-003	 -4.763374E-002	  3.597310E-001	  5.607679E-003	 -1.315327E-001	  3.033110E-001	  7.926422E-003
         0.4140	  2.446969E+001	  0.000000E+000	  3.500000E-001	  0.000000E+000	  0.000000E+000	  0.000000E+000	  5.852260E+000	  9.649737E-001	  4.633218E-003	 -8.463018E-002	  2.881647E-001	  5.147230E-002	  3.187491E+000	  5.641752E-001	  8.695066E-003	 -9.551509E-002	  2.653236E-001	  2.509493E-002	  8.809766E-001	  4.036357E-001	  7.106289E-003	 -1.088141E-001	  2.399649E-001	  9.409442E-003	 -1.561629E-001	  3.500527E-001	  5.409047E-003	 -1.313875E-001	  3.095787E-001	  7.884771E-003
         0.5520	  2.369818E+001	  0.000000E+000	  3.500000E-001	  0.000000E+000	  0.000000E+000	  0.000000E+000	  5.484544E+000	  9.370379E-001	  1.027822E-003	 -8.239149E-002	  2.904390E-001	  5.052860E-002	  2.954880E+000	  5.443220E-001	  7.575080E-003	 -9.420694E-002	  2.680864E-001	  2.476586E-002	  7.539572E-001	  3.910957E-001	  6.877862E-003	 -1.082688E-001	  2.436324E-001	  9.330837E-003	 -2.708383E-001	  3.393570E-001	  5.302299E-003	 -1.310061E-001	  3.152412E-001	  7.829023E-003
         0.6900	  2.278370E+001	  0.000000E+000	  3.500000E-001	  0.000000E+000	  0.000000E+000	  0.000000E+000	  5.066923E+000	  9.041806E-001	 -1.653761E-003	 -8.084811E-002	  2.924008E-001	  4.941344E-002	  2.694668E+000	  5.204901E-001	  6.769232E-003	 -9.310775E-002	  2.704695E-001	  2.437242E-002	  6.171511E-001	  3.765630E-001	  6.735545E-003	 -1.077444E-001	  2.467960E-001	  9.235865E-003	 -3.874980E-001	  3.277133E-001	  5.255230E-003	 -1.306308E-001	  3.201259E-001	  7.761471E-003
         0.8280	  2.177236E+001	  0.000000E+000	  3.500000E-001	  0.000000E+000	  0.000000E+000	  0.000000E+000	  4.618598E+000	  8.671895E-001	 -3.242731E-003	 -7.995312E-002	  2.939904E-001	  4.818359E-002	  2.417754E+000	  4.936064E-001	  6.304204E-003	 -9.219072E-002	  2.724006E-001	  2.393269E-002	  4.756543E-001	  3.607371E-001	  6.669831E-003	 -1.072482E-001	  2.493594E-001	  9.128404E-003	 -5.020615E-001	  3.157311E-001	  5.252730E-003	 -1.302805E-001	  3.240838E-001	  7.684800E-003
         0.9660	  2.070997E+001	  0.000000E+000	  3.500000E-001	  0.000000E+000	  0.000000E+000	  0.000000E+000	  4.158254E+000	  8.271157E-001	 -4.450887E-003	 -7.965324E-002	  2.951593E-001	  4.689457E-002	  2.134867E+000	  4.646444E-001	  6.167732E-003	 -9.139436E-002	  2.738204E-001	  2.346513E-002	  3.344436E-001	  3.442418E-001	  6.670706E-003	 -1.067772E-001	  2.512443E-001	  9.012592E-003	 -6.107401E-001	  3.038990E-001	  5.284112E-003	 -1.299753E-001	  3.269942E-001	  7.601867E-003
         1.1040	  1.963887E+001	  0.000000E+000	  3.500000E-001	  0.000000E+000	  0.000000E+000	  0.000000E+000	  3.702921E+000	  7.850250E-001	 -4.705474E-003	 -7.984190E-002	  2.958716E-001	  4.559710E-002	  1.855974E+000	  4.345841E-001	  6.315447E-003	 -9.069535E-002	  2.746857E-001	  2.298745E-002	  1.981643E-001	  3.276612E-001	  6.725866E-003	 -1.063206E-001	  2.523932E-001	  8.892605E-003	 -7.101693E-001	  2.926428E-001	  5.340051E-003	 -1.297313E-001	  3.287682E-001	  7.515620E-003
         1.2420	  1.859576E+001	  0.000000E+000	  3.500000E-001	  0.000000E+000	  0.000000E+000	  0.000000E+000	  3.267242E+000	  7.418512E-001	 -3.415525E-003	 -8.023242E-002	  2.961059E-001	  4.433512E-002	  1.589882E+000	  4.043829E-001	  6.683022E-003	 -9.010740E-002	  2.749702E-001	  2.251584E-002	  7.095371E-002	  3.115407E-001	  6.821506E-003	 -1.058825E-001	  2.527710E-001	  8.772447E-003	 -7.975091E-001	  2.823334E-001	  5.412277E-003	 -1.295530E-001	  3.293519E-001	  7.428912E-003
         1.3800	  1.761078E+001	  0.000000E+000	  3.500000E-001	  0.000000E+000	  0.000000E+000	  0.000000E+000	  2.863218E+000	  6.985159E-001	 -1.105204E-003	 -8.052028E-002	  2.958547E-001	  4.314436E-002	  1.344032E+000	  3.749455E-001	  7.199310E-003	 -8.963705E-002	  2.746651E-001	  2.206439E-002	 -4.364917E-002	  2.963769E-001	  6.944004E-003	 -1.055382E-001	  2.523663E-001	  8.655818E-003	 -8.704990E-001	  2.732852E-001	  5.493928E-003	 -1.294342E-001	  3.287273E-001	  7.344433E-003
         1.5180	  1.670740E+001	 -1.490116E-008	  3.500000E-001	  0.000000E+000	  0.000000E+000	  0.000000E+000	  2.500181E+000	  6.561063E-001	  1.789764E-003	 -8.076003E-002	  2.951258E-001	  4.205291E-002	  1.124415E+000	  3.470967E-001	  7.796876E-003	 -8.927566E-002	  2.737797E-001	  2.164499E-002	 -1.427569E-001	  2.826070E-001	  7.081378E-003	 -1.052283E-001	  2.511912E-001	  8.546019E-003	 -9.274564E-001	  2.657519E-001	  5.579874E-003	 -1.293705E-001	  3.269136E-001	  7.264623E-003
         1.6560	  1.590301E+001	  0.000000E+000	  3.500000E-001	  0.000000E+000	  0.000000E+000	  0.000000E+000	  2.185053E+000	  6.158472E-001	  4.933074E-003	 -8.142225E-002	  2.939415E-001	  4.108195E-002	  9.356616E-001	  3.215643E-001	  8.419741E-003	 -8.899710E-002	  2.723409E-001	  2.126727E-002	 -2.241335E-001	  2.706004E-001	  7.224221E-003	 -1.050180E-001	  2.492817E-001	  8.445924E-003	 -9.672636E-001	  2.599255E-001	  5.666742E-003	 -1.293605E-001	  3.239660E-001	  7.191629E-003
         1.7940	  1.520989E+001	  0.000000E+000	  3.500000E-001	  0.000000E+000	  0.000000E+000	  0.000000E+000	  1.922684E+000	  5.787801E-001	  8.074611E-003	 -8.236237E-002	  2.923377E-001	  4.024671E-002	  7.811482E-001	  2.989663E-001	  9.026770E-003	 -8.876715E-002	  2.703926E-001	  2.093879E-002	 -2.861695E-001	  2.606546E-001	  7.366087E-003	 -1.049125E-001	  2.466960E-001	  8.357943E-003	 -9.893294E-001	  2.559367E-001	  5.752722E-003	 -1.294048E-001	  3.199744E-001	  7.127285E-003
         1.9320	  1.463628E+001	  0.000000E+000	  3.500000E-001	  0.000000E+000	  0.000000E+000	  0.000000E+000	  1.716252E+000	  5.456600E-001	  1.104261E-002	 -8.322657E-002	  2.903633E-001	  3.955768E-002	  6.631883E-001	  2.798067E-001	  9.592574E-003	 -8.859511E-002	  2.679942E-001	  2.066530E-002	 -3.278277E-001	  2.529944E-001	  7.503472E-003	 -1.048993E-001	  2.435128E-001	  8.284024E-003	 -9.935359E-001	  2.538579E-001	  5.837295E-003	 -1.295049E-001	  3.150605E-001	  7.073113E-003
         2.0700	  1.418742E+001	  0.000000E+000	  3.500000E-001	  0.000000E+000	  0.000000E+000	  0.000000E+000	  1.567637E+000	  5.170516E-001	  1.372968E-002	 -8.383621E-002	  2.880785E-001	  3.902200E-002	  5.831803E-001	  2.644769E-001	  1.010594E-002	 -8.852874E-002	  2.652189E-001	  2.045106E-002	 -3.485650E-001	  2.477757E-001	  7.635424E-003	 -1.049690E-001	  2.398292E-001	  8.225709E-003	 -9.801803E-001	  2.537081E-001	  5.920803E-003	 -1.296614E-001	  3.093743E-001	  7.030319E-003
         2.2080	  1.386644E+001	  0.000000E+000	  3.500000E-001	  0.000000E+000	  0.000000E+000	  0.000000E+000	  1.477714E+000	  4.933271E-001	  1.601020E-002	 -8.436798E-002	  2.855531E-001	  3.864406E-002	  5.418022E-001	  2.532624E-001	  1.056748E-002	 -8.860977E-002	  2.621510E-001	  2.029906E-002	 -3.483268E-001	  2.450858E-001	  7.762793E-003	 -1.051153E-001	  2.357578E-001	  8.184141E-003	 -9.499371E-001	  2.554564E-001	  6.004049E-003	 -1.298722E-001	  3.030891E-001	  6.999809E-003
         2.3460	  1.367507E+001	  0.000000E+000	  3.500000E-001	  0.000000E+000	  0.000000E+000	  0.000000E+000	  1.446650E+000	  4.747444E-001	  1.791620E-002	 -8.493937E-002	  2.828638E-001	  3.842661E-002	  5.391000E-001	  2.463491E-001	  1.098651E-002	 -8.886442E-002	  2.588843E-001	  2.021127E-002	 -3.274307E-001	  2.449528E-001	  7.887833E-003	 -1.053356E-001	  2.314224E-001	  8.160110E-003	 -9.037962E-001	  2.590289E-001	  6.087985E-003	 -1.301326E-001	  2.963966E-001	  6.982218E-003
         2.4840	  1.361414E+001	  0.000000E+000	  3.500000E-001	  0.000000E+000	  0.000000E+000	  0.000000E+000	  1.474017E+000	  4.615732E-001	  1.948898E-002	 -8.558388E-002	  2.800928E-001	  3.837103E-002	  5.745965E-001	  2.438313E-001	  1.137843E-002	 -8.930857E-002	  2.555183E-001	  2.018876E-002	 -2.865905E-001	  2.473460E-001	  8.013329E-003	 -1.056256E-001	  2.269553E-001	  8.154057E-003	 -8.430502E-001	  2.643113E-001	  6.173337E-003	 -1.304349E-001	  2.895009E-001	  6.977907E-003
         2.6220	  1.368390E+001	  0.000000E+000	  3.500000E-001	  0.000000E+000	  0.000000E+000	  0.000000E+000	  1.558945E+000	  4.541241E-001	  2.055103E-002	 -8.643089E-002	  2.773245E-001	  3.847775E-002	  6.473500E-001	  2.457211E-001	  1.176214E-002	 -8.995119E-002	  2.521557E-001	  2.023186E-002	 -2.268622E-001	  2.521825E-001	  8.142158E-003	 -1.059809E-001	  2.224928E-001	  8.166117E-003	 -7.692586E-001	  2.711543E-001	  6.260389E-003	 -1.307703E-001	  2.826123E-001	  6.986978E-003
         2.7600	  1.388406E+001	  0.000000E+000	  3.500000E-001	  0.000000E+000	  0.000000E+000	  0.000000E+000	  1.700082E+000	  4.526962E-001	  2.135938E-002	 -8.762336E-002	  2.746433E-001	  3.874630E-002	  7.559491E-001	  2.519518E-001	  1.215786E-002	 -9.079202E-002	  2.488988E-001	  2.034016E-002	 -1.496204E-001	  2.593312E-001	  8.276798E-003	 -1.063956E-001	  2.181707E-001	  8.196104E-003	 -6.842282E-001	  2.793771E-001	  6.348806E-003	 -1.311293E-001	  2.759408E-001	  7.009279E-003
         2.8980	  1.421374E+001	  0.000000E+000	  3.500000E-001	  0.000000E+000	  0.000000E+000	  0.000000E+000	  1.895583E+000	  4.575405E-001	  2.198110E-002	 -8.924246E-002	  2.721309E-001	  3.917523E-002	  8.984866E-001	  2.623799E-001	  1.258517E-002	 -9.182087E-002	  2.458471E-001	  2.051245E-002	 -5.660604E-002	  2.686120E-001	  8.418672E-003	 -1.068629E-001	  2.141213E-001	  8.243510E-003	 -5.900173E-001	  2.887687E-001	  6.437410E-003	 -1.315033E-001	  2.696900E-001	  7.044391E-003
         3.0360	  1.467115E+001	  0.000000E+000	  3.500000E-001	  0.000000E+000	  0.000000E+000	  0.000000E+000	  2.142959E+000	  4.687960E-001	  2.248279E-002	 -9.127007E-002	  2.698639E-001	  3.976176E-002	  1.072521E+000	  2.767881E-001	  1.306116E-002	 -9.301781E-002	  2.430935E-001	  2.074664E-002	  5.013444E-002	  2.798025E-001	  8.568034E-003	 -1.073992E-001	  2.104675E-001	  8.307487E-003	 -4.889143E-001	  2.990917E-001	  6.524146E-003	 -1.318858E-001	  2.640506E-001	  7.091635E-003
         3.1740	  1.525302E+001	  0.000000E+000	  3.500000E-001	  0.000000E+000	  0.000000E+000	  0.000000E+000	  2.438877E+000	  4.864290E-001	  2.292553E-002	 -9.359460E-002	  2.679113E-001	  4.050106E-002	  1.274947E+000	  2.948773E-001	  1.359823E-002	 -9.435099E-002	  2.407219E-001	  2.103956E-002	  1.681592E-001	  2.926331E-001	  8.723255E-003	 -1.079644E-001	  2.073210E-001	  8.386824E-003	 -3.834195E-001	  3.100846E-001	  6.606068E-003	 -1.322724E-001	  2.591943E-001	  7.150046E-003
         3.3120	  1.595396E+001	  0.000000E+000	  3.500000E-001	  0.000000E+000	  0.000000E+000	  0.000000E+000	  2.778946E+000	  5.101849E-001	  2.335814E-002	 -9.605040E-002	  2.663326E-001	  4.138572E-002	  1.501913E+000	  3.162643E-001	  1.420199E-002	 -9.577895E-002	  2.388046E-001	  2.138675E-002	  2.946859E-001	  3.067923E-001	  8.880764E-003	 -1.085711E-001	  2.047777E-001	  8.479910E-003	 -2.762717E-001	  3.214616E-001	  6.679140E-003	 -1.326583E-001	  2.552693E-001	  7.218343E-003
         3.4500	  1.676547E+001	  0.000000E+000	  3.500000E-001	  0.000000E+000	  0.000000E+000	  0.000000E+000	  3.157375E+000	  5.395562E-001	  2.380785E-002	 -9.848015E-002	  2.651760E-001	  4.240457E-002	  1.748702E+000	  3.404745E-001	  1.486867E-002	 -9.724322E-002	  2.373999E-001	  2.178216E-002	  4.265393E-001	  3.219239E-001	  9.034678E-003	 -1.091981E-001	  2.029150E-001	  8.584701E-003	 -1.703739E-001	  3.329186E-001	  6.738666E-003	 -1.330305E-001	  2.523955E-001	  7.294958E-003
         3.5880	  1.767498E+001	 -1.490116E-008	  3.500000E-001	  0.000000E+000	  0.000000E+000	  0.000000E+000	  3.566710E+000	  5.737866E-001	  2.427268E-002	 -1.007934E-001	  2.644766E-001	  4.354146E-002	  2.009622E+000	  3.669347E-001	  1.558251E-002	 -9.866717E-002	  2.365507E-001	  2.221792E-002	  5.601993E-001	  3.376317E-001	  9.176832E-003	 -1.098123E-001	  2.017896E-001	  8.698713E-003	 -6.877402E-002	  3.441358E-001	  6.779321E-003	 -1.333694E-001	  2.506601E-001	  7.377993E-003
         3.7260	  1.866469E+001	  0.000000E+000	  3.500000E-001	  0.000000E+000	  0.000000E+000	  0.000000E+000	  3.997531E+000	  6.119310E-001	  2.472101E-002	 -1.028206E-001	  2.642556E-001	  4.477420E-002	  2.277945E+000	  3.949692E-001	  1.631338E-002	 -9.996167E-002	  2.362826E-001	  2.268397E-002	  6.918119E-001	  3.534817E-001	  9.296898E-003	 -1.103717E-001	  2.014359E-001	  8.818989E-003	  2.538525E-002	  3.547829E-001	  6.795574E-003	 -1.336720E-001	  2.501164E-001	  7.465235E-003
         3.8640	  1.971072E+001	  0.000000E+000	  3.500000E-001	  0.000000E+000	  0.000000E+000	  0.000000E+000	  4.438282E+000	  6.529295E-001	  2.509828E-002	 -1.042906E-001	  2.645198E-001	  4.607349E-002	  2.545922E+000	  4.238014E-001	  1.701576E-002	 -1.010624E-001	  2.366039E-001	  2.316805E-002	  8.172901E-001	  3.690102E-001	  9.383101E-003	 -1.108341E-001	  2.018645E-001	  8.942135E-003	  1.089919E-001	  3.645292E-001	  6.782405E-003	 -1.338855E-001	  2.507807E-001	  7.554198E-003
         4.0020	  2.078247E+001	  0.000000E+000	  3.500000E-001	  0.000000E+000	  0.000000E+000	  0.000000E+000	  4.875227E+000	  6.955785E-001	  2.531911E-002	 -1.051347E-001	  2.652608E-001	  4.740226E-002	  2.804878E+000	  4.525624E-001	  1.762906E-002	 -1.019312E-001	  2.375046E-001	  2.365573E-002	  9.324070E-001	  3.837337E-001	  9.423081E-003	 -1.111798E-001	  2.030623E-001	  9.064393E-003	  1.790389E-001	  3.730514E-001	  6.735791E-003	 -1.340145E-001	  2.526328E-001	  7.642142E-003
         4.1400	  2.184279E+001	  0.000000E+000	  3.500000E-001	  0.000000E+000	  0.000000E+000	  0.000000E+000	  5.292688E+000	  7.385039E-001	  2.526192E-002	 -1.054665E-001	  2.664563E-001	  4.871532E-002	  3.045457E+000	  4.803101E-001	  1.808145E-002	 -1.025291E-001	  2.389570E-001	  2.413043E-002	  1.032964E+000	  3.971632E-001	  9.405412E-003	 -1.114090E-001	  2.049927E-001	  9.181703E-003	  2.327908E-001	  3.800473E-001	  6.653611E-003	 -1.340549E-001	  2.556162E-001	  7.726186E-003
         4.2780	  2.284905E+001	  0.000000E+000	  3.500000E-001	  0.000000E+000	  0.000000E+000	  0.000000E+000	  5.673610E+000	  7.802545E-001	  2.479240E-002	 -1.053630E-001	  2.680694E-001	  4.996060E-002	  3.258007E+000	  5.060617E-001	  1.829698E-002	 -1.028053E-001	  2.409169E-001	  2.457413E-002	  1.114993E+000	  4.088239E-001	  9.321362E-003	 -1.115232E-001	  2.075968E-001	  9.289865E-003	  2.679141E-001	  3.852486E-001	  6.536279E-003	 -1.340080E-001	  2.596399E-001	  7.803392E-003
         4.4160	  2.375530E+001	  1.490116E-008	  3.500000E-001	  0.000000E+000	  0.000000E+000	  0.000000E+000	  6.000466E+000	  8.192683E-001	  2.376473E-002	 -1.045991E-001	  2.700509E-001	  5.108180E-002	  3.433147E+000	  5.288402E-001	  1.820680E-002	 -1.027216E-001	  2.433243E-001	  2.496831E-002	  1.174972E+000	  4.182758E-001	  9.166770E-003	 -1.115231E-001	  2.107949E-001	  9.384765E-003	  2.826520E-001	  3.884371E-001	  6.387372E-003	 -1.338776E-001	  2.645811E-001	  7.870905E-003
         4.5540	  2.451557E+001	 -1.490116E-008	  3.500000E-001	  0.000000E+000	  0.000000E+000	  0.000000E+000	  6.256537E+000	  8.538281E-001	  2.202058E-002	 -1.027990E-001	  2.723404E-001	  5.202191E-002	  3.562387E+000	  5.477269E-001	  1.776225E-002	 -1.022488E-001	  2.461056E-001	  2.529498E-002	  1.210083E+000	  4.251393E-001	  8.943677E-003	 -1.114089E-001	  2.144895E-001	  9.462586E-003	  2.759644E-001	  3.894579E-001	  6.213710E-003	 -1.336701E-001	  2.702890E-001	  7.926105E-003
         4.6920	  2.508794E+001	 -1.490116E-008	  3.500000E-001	  0.000000E+000	  0.000000E+000	  0.000000E+000	  6.427404E+000	  8.822576E-001	  1.944709E-002	 -1.000704E-001	  2.748677E-001	  5.272858E-002	  3.638880E+000	  5.619243E-001	  1.694851E-002	 -1.014024E-001	  2.491760E-001	  2.553826E-002	  1.218427E+000	  4.291172E-001	  8.661233E-003	 -1.111801E-001	  2.185679E-001	  9.520034E-003	  2.476481E-001	  3.882330E-001	  6.025039E-003	 -1.333951E-001	  2.765895E-001	  7.966771E-003
         4.8300	  2.543885E+001	  0.000000E+000	  3.500000E-001	  0.000000E+000	  0.000000E+000	  0.000000E+000	  6.502483E+000	  9.032215E-001	  1.606458E-002	 -9.671993E-002	  2.775559E-001	  5.315958E-002	  3.658052E+000	  5.708133E-001	  1.579402E-002	 -1.002541E-001	  2.524417E-001	  2.568564E-002	  1.199209E+000	  4.300173E-001	  8.335628E-003	 -1.108439E-001	  2.229056E-001	  9.554611E-003	  1.983939E-001	  3.847687E-001	  5.833182E-003	 -1.330643E-001	  2.832906E-001	  7.991214E-003
         4.9680	  2.554688E+001	  0.000000E+000	  3.500000E-001	  0.000000E+000	  0.000000E+000	  0.000000E+000	  6.476295E+000	  9.159136E-001	  1.207536E-002	 -9.309229E-002	  2.803227E-001	  5.328810E-002	  3.618166E+000	  5.740017E-001	  1.437326E-002	 -9.891602E-002	  2.558029E-001	  2.572931E-002	  1.152855E+000	  4.277681E-001	  7.988662E-003	 -1.104158E-001	  2.273701E-001	  9.564786E-003	  1.298137E-001	  3.791614E-001	  5.650748E-003	 -1.326919E-001	  2.901877E-001	  7.998416E-003
         5.1060	  2.540530E+001	  0.000000E+000	  3.500000E-001	  0.000000E+000	  0.000000E+000	  0.000000E+000	  6.349235E+000	  9.199265E-001	  8.766383E-003	 -8.950678E-002	  2.830839E-001	  5.310620E-002	  3.520530E+000	  5.713524E-001	  1.279902E-002	 -9.749413E-002	  2.591572E-001	  2.566705E-002	  1.081021E+000	  4.224268E-001	  7.645160E-003	 -1.099166E-001	  2.318253E-001	  9.550133E-003	  4.437488E-002	  3.715962E-001	  5.489603E-003	 -1.322917E-001	  2.970704E-001	  7.988089E-003
         5.2440	  2.502291E+001	 -1.490116E-008	  3.500000E-001	  0.000000E+000	  0.000000E+000	  0.000000E+000	  6.127689E+000	  9.154156E-001	  6.197840E-003	 -8.622994E-002	  2.857548E-001	  5.262601E-002	  3.369508E+000	  5.629906E-001	  1.120691E-002	 -9.608538E-002	  2.624019E-001	  2.550237E-002	  9.865124E-001	  4.141794E-001	  7.329732E-003	 -1.093709E-001	  2.361353E-001	  9.511354E-003	 -5.473628E-002	  3.623376E-001	  5.359348E-003	 -1.318898E-001	  3.037290E-001	  7.960712E-003
         5.3820	  2.442296E+001	  0.000000E+000	  3.500000E-001	  0.000000E+000	  0.000000E+000	  0.000000E+000	  5.823376E+000	  9.030370E-001	  3.041714E-003	 -8.347594E-002	  2.882542E-001	  5.187791E-002	  3.172123E+000	  5.492895E-001	  9.733468E-003	 -9.476777E-002	  2.654381E-001	  2.524422E-002	  8.731073E-001	  4.033311E-001	  7.063482E-003	 -1.088054E-001	  2.401684E-001	  9.450234E-003	 -1.637922E-001	  3.517179E-001	  5.266208E-003	 -1.314714E-001	  3.099602E-001	  7.917482E-003
         5.5200	  2.364039E+001	  0.000000E+000	  3.500000E-001	  0.000000E+000	  0.000000E+000	  0.000000E+000	  5.452116E+000	  8.834646E-001	  3.837943E-004	 -8.137868E-002	  2.905055E-001	  5.090698E-002	  2.937470E+000	  5.308354E-001	  8.494534E-003	 -9.359577E-002	  2.681731E-001	  2.490599E-002	  7.453196E-001	  3.902906E-001	  6.861366E-003	 -1.082479E-001	  2.438016E-001	  9.369493E-003	 -2.787084E-001	  3.401221E-001	  5.212635E-003	 -1.310559E-001	  3.155739E-001	  7.860237E-003
         5.6580	  2.271791E+001	 -1.490116E-008	  3.500000E-001	  0.000000E+000	  0.000000E+000	  0.000000E+000	  5.032259E+000	  8.577398E-001	 -2.351969E-003	 -7.998241E-002	  2.924401E-001	  4.976697E-002	  2.675947E+000	  5.083852E-001	  7.568799E-003	 -9.258939E-002	  2.705233E-001	  2.450423E-002	  6.080874E-001	  3.755450E-001	  6.730698E-003	 -1.077168E-001	  2.469242E-001	  9.272569E-003	 -3.953305E-001	  3.279631E-001	  5.197171E-003	 -1.306574E-001	  3.203990E-001	  7.791318E-003
         5.7960	  2.170170E+001	  0.000000E+000	  3.500000E-001	  0.000000E+000	  0.000000E+000	  0.000000E+000	  4.582998E+000	  8.269198E-001	 -4.443422E-003	 -7.926115E-002	  2.939990E-001	  4.851541E-002	  2.398452E+000	  4.828165E-001	  6.990053E-003	 -9.172720E-002	  2.724170E-001	  2.405720E-002	  4.665053E-001	  3.596340E-001	  6.671153E-003	 -1.072186E-001	  2.494406E-001	  9.163384E-003	 -5.095927E-001	  3.156657E-001	  5.215436E-003	 -1.302933E-001	  3.242882E-001	  7.713425E-003
         5.9340	  2.063745E+001	  1.490116E-008	  3.500000E-001	  0.000000E+000	  0.000000E+000	  0.000000E+000	  4.122918E+000	  7.921122E-001	 -4.916370E-003	 -7.910489E-002	  2.951344E-001	  4.720803E-002	  2.115680E+000	  4.550805E-001	  6.749228E-003	 -9.097767E-002	  2.737963E-001	  2.358346E-002	  3.255311E-001	  3.431215E-001	  6.675866E-003	 -1.067475E-001	  2.512741E-001	  9.046114E-003	 -6.177274E-001	  3.036455E-001	  5.261000E-003	 -1.299806E-001	  3.271230E-001	  7.629471E-003
         6.0720	  1.956714E+001	  0.000000E+000	  3.500000E-001	  0.000000E+000	  0.000000E+000	  0.000000E+000	  3.668890E+000	  7.544506E-001	 -4.042402E-003	 -7.930633E-002	  2.958115E-001	  4.589575E-002	  1.837527E+000	  4.261535E-001	  6.803147E-003	 -9.033310E-002	  2.746190E-001	  2.310076E-002	  1.897794E-001	  3.265690E-001	  6.733578E-003	 -1.062913E-001	  2.523687E-001	  8.924940E-003	 -7.164057E-001	  2.922911E-001	  5.326653E-003	 -1.297335E-001	  3.288168E-001	  7.542382E-003
         6.2100	  1.852709E+001	  1.490116E-008	  3.500000E-001	  0.000000E+000	  0.000000E+000	  0.000000E+000	  3.235391E+000	  7.149992E-001	 -2.158061E-003	 -7.960323E-002	  2.960097E-001	  4.462220E-002	  1.572708E+000	  3.969965E-001	  7.087804E-003	 -8.980311E-002	  2.748600E-001	  2.262529E-002	  6.335256E-002	  3.105124E-001	  6.830834E-003	 -1.058559E-001	  2.526911E-001	  8.803863E-003	 -8.028268E-001	  2.819506E-001	  5.405447E-003	 -1.295544E-001	  3.293179E-001	  7.455025E-003
         6.3480	  1.754696E+001	  1.490116E-008	  3.500000E-001	  0.000000E+000	  0.000000E+000	  0.000000E+000	  2.834210E+000	  6.748973E-001	  3.983974E-004	 -7.982661E-002	  2.957228E-001	  4.342295E-002	  1.328566E+000	  3.685212E-001	  7.531814E-003	 -8.938348E-002	  2.745117E-001	  2.217108E-002	 -5.025482E-002	  2.954424E-001	  6.954201E-003	 -1.055163E-001	  2.522312E-001	  8.686586E-003	 -8.747671E-001	  2.729213E-001	  5.491437E-003	 -1.294362E-001	  3.286111E-001	  7.370098E-003
         6.4860	  1.664978E+001	  0.000000E+000	  3.500000E-001	  0.000000E+000	  0.000000E+000	  0.000000E+000	  2.474527E+000	  6.354384E-001	  3.328547E-003	 -8.030176E-002	  2.949595E-001	  4.232572E-002	  1.111004E+000	  3.415605E-001	  8.067384E-003	 -8.906428E-002	  2.735847E-001	  2.174990E-002	 -1.482048E-001	  2.817910E-001	  7.091809E-003	 -1.052127E-001	  2.510030E-001	  8.576400E-003	 -9.305812E-001	  2.654443E-001	  5.580198E-003	 -1.293741E-001	  3.267178E-001	  7.290023E-003
         6.6240	  1.585257E+001	 -1.490116E-008	  3.500000E-001	  0.000000E+000	  0.000000E+000	  0.000000E+000	  2.163101E+000	  5.978765E-001	  6.385788E-003	 -8.116324E-002	  2.937428E-001	  4.135131E-002	  9.245540E-001	  3.168486E-001	  8.637838E-003	 -8.881349E-002	  2.721070E-001	  2.137127E-002	 -2.282991E-001	  2.699234E-001	  7.234484E-003	 -1.050099E-001	  2.490439E-001	  8.476155E-003	 -9.691986E-001	  2.597004E-001	  5.668823E-003	 -1.293660E-001	  3.236959E-001	  7.216931E-003
         6.7620	  1.516731E+001	  0.000000E+000	  3.500000E-001	  0.000000E+000	  0.000000E+000	  0.000000E+000	  1.904655E+000	  5.632015E-001	  9.378374E-003	 -8.213868E-002	  2.921098E-001	  4.051479E-002	  7.725225E-001	  2.950097E-001	  9.201422E-003	 -8.860439E-002	  2.701237E-001	  2.104269E-002	 -2.889708E-001	  2.601323E-001	  7.375933E-003	 -1.049111E-001	  2.464136E-001	  8.388231E-003	 -9.900474E-001	  2.558124E-001	  5.755946E-003	 -1.294130E-001	  3.196372E-001	  7.152646E-003
         6.9000	  1.460199E+001	  0.000000E+000	  3.500000E-001	  0.000000E+000	  0.000000E+000	  0.000000E+000	  1.702285E+000	  5.321835E-001	  1.217429E-002	 -8.291737E-002	  2.901102E-001	  3.982637E-002	  6.571504E-001	  2.765529E-001	  9.731874E-003	 -8.845688E-002	  2.676952E-001	  2.076985E-002	 -3.292100E-001	  2.526384E-001	  7.512851E-003	 -1.049040E-001	  2.431921E-001	  8.314553E-003	 -9.930484E-001	  2.538455E-001	  5.841238E-003	 -1.295162E-001	  3.146659E-001	  7.098673E-003
         7.0380	  1.416169E+001	  0.000000E+000	  3.500000E-001	  0.000000E+000	  0.000000E+000	  0.000000E+000	  1.557769E+000	  5.053975E-001	  1.469257E-002	 -8.348384E-002	  2.878049E-001	  3.929301E-002	  5.797968E-001	  2.618746E-001	  1.021720E-002	 -8.841904E-002	  2.648952E-001	  2.055689E-002	 -3.485198E-001	  2.475926E-001	  7.644366E-003	 -1.049790E-001	  2.394778E-001	  8.256644E-003	 -9.785253E-001	  2.538123E-001	  5.925247E-003	 -1.296758E-001	  3.089332E-001	  7.056195E-003
         7.1760	  1.384942E+001	  1.490116E-008	  3.500000E-001	  0.000000E+000	  0.000000E+000	  0.000000E+000	  1.471965E+000	  4.832318E-001	  1.680935E-002	 -8.402578E-002	  2.852640E-001	  3.891900E-002	  5.410790E-001	  2.512633E-001	  1.065705E-002	 -8.852901E-002	  2.618092E-001	  2.040671E-002	 -3.468601E-001	  2.450786E-001	  7.771479E-003	 -1.051306E-001	  2.353837E-001	  8.215626E-003	 -9.471700E-001	  2.556777E-001	  6.008888E-003	 -1.298898E-001	  3.026142E-001	  7.026113E-003
         7.3140	  1.366684E+001	  0.000000E+000	  3.500000E-001	  0.000000E+000	  0.000000E+000	  0.000000E+000	  1.444963E+000	  4.659986E-001	  1.856937E-002	 -8.458491E-002	  2.825649E-001	  3.870690E-002	  5.410167E-001	  2.449082E-001	  1.105998E-002	 -8.881199E-002	  2.585311E-001	  2.032124E-002	 -3.245851E-001	  2.451203E-001	  7.896444E-003	 -1.053557E-001	  2.310348E-001	  8.192259E-003	 -8.999990E-001	  2.593633E-001	  6.093154E-003	 -1.301529E-001	  2.959014E-001	  7.009036E-003
         7.4520	  1.361474E+001	  1.490116E-008	  3.500000E-001	  0.000000E+000	  0.000000E+000	  0.000000E+000	  1.476333E+000	  4.540315E-001	  2.001914E-002	 -8.522768E-002	  2.797899E-001	  3.865801E-002	  5.790984E-001	  2.429066E-001	  1.144057E-002	 -8.928297E-002	  2.551608E-001	  2.030148E-002	 -2.824300E-001	  2.476836E-001	  8.022079E-003	 -1.056503E-001	  2.265635E-001	  8.186967E-003	 -8.383207E-001	  2.647518E-001	  6.178783E-003	 -1.304576E-001	  2.889997E-001	  7.005311E-003
         7.5900	  1.369331E+001	 -1.490116E-008	  3.500000E-001	  0.000000E+000	  0.000000E+000	  0.000000E+000	  1.565160E+000	  4.476906E-001	  2.097638E-002	 -8.610458E-002	  2.770232E-001	  3.877263E-002	  6.543500E-001	  2.452721E-001	  1.181698E-002	 -8.995068E-002	  2.518008E-001	  2.034770E-002	 -2.214680E-001	  2.526824E-001	  8.151259E-003	 -1.060098E-001	  2.221060E-001	  8.199858E-003	 -7.637150E-001	  2.716906E-001	  6.266056E-003	 -1.307946E-001	  2.821193E-001	  7.015015E-003
         7.7280	  1.390226E+001	  0.000000E+000	  3.500000E-001	  0.000000E+000	  0.000000E+000	  0.000000E+000	  1.710069E+000	  4.473072E-001	  2.170170E-002	 -8.736157E-002	  2.743494E-001	  3.905020E-002	  7.653338E-001	  2.519397E-001	  1.220879E-002	 -9.081460E-002	  2.485536E-001	  2.045940E-002	 -1.430993E-001	  2.599825E-001	  8.286387E-003	 -1.064284E-001	  2.177982E-001	  8.230721E-003	 -6.779966E-001	  2.799972E-001	  6.354623E-003	 -1.311548E-001	  2.754700E-001	  7.037981E-003
         7.8660	  1.424065E+001	  0.000000E+000	  3.500000E-001	  0.000000E+000	  0.000000E+000	  0.000000E+000	  1.909173E+000	  4.531484E-001	  2.225998E-002	 -8.906107E-002	  2.718497E-001	  3.948914E-002	  9.101133E-001	  2.627668E-001	  1.263492E-002	 -9.186406E-002	  2.455180E-001	  2.063533E-002	 -4.907576E-002	  2.694017E-001	  8.428846E-003	 -1.068993E-001	  2.137714E-001	  8.279023E-003	 -5.832452E-001	  2.894581E-001	  6.443240E-003	 -1.315296E-001	  2.692548E-001	  7.073770E-003