
Predictions were generated on 26-Sep-2016 at 13:37:25 using AeroDyn_driver (v1.02.00a, 12-Apr-2016)
 AeroDyn (v15.03.00, 27-Jul-2016)

Case 2: WndSpeed=7 m/s; ShearExp=0 ; RotSpeed=12.1 rpm; Pitch=0 deg; Yaw=20 deg; dT=1.38000E-02 s; Tmax=22.794 s

     Time           	B1N1Alpha 	B1N1Cl    	B1N1Cd    	B1N1Cm    	B1N1AxInd 	B1N1TnInd 	B1N2Alpha 	B1N2Cl    	B1N2Cd    	B1N2Cm    	B1N2AxInd 	B1N2TnInd 	B1N3Alpha 	B1N3Cl    	B1N3Cd    	B1N3Cm    	B1N3AxInd 	B1N3TnInd 	B1N4Alpha 	B1N4Cl    	B1N4Cd    	B1N4Cm    	B1N4AxInd 	B1N4TnInd 	B1N5Alpha 	B1N5Cl    	B1N5Cd    	B1N5Cm    	B1N5AxInd 	B1N5TnInd 
      (s)           	(deg)     	(-)       	(-)       	(-)       	(-)       	(-)       	(deg)     	(-)       	(-)       	(-)       	(-)       	(-)       	(deg)     	(-)       	(-)       	(-)       	(-)       	(-)       	(deg)     	(-)       	(-)       	(-)       	(-)       	(-)       	(deg)     	(-)       	(-)       	(-)       	(-)       	(-)       
         0.0000	  2.554745E+001	  0.000000E+000	  3.500000E-001	  0.000000E+000	  0.000000E+000	  0.000000E+000	  6.480457E+000	  1.024725E+000	  1.435441E-002	 -9.729246E-002	  2.802957E-001	  5.310141E-002	  3.616961E+000	  6.897478E-001	  1.041903E-002	 -1.020814E-001	  2.559142E-001	  2.567142E-002	  1.154040E+000	  4.413714E-001	  8.832239E-003	 -1.113705E-001	  2.272963E-001	  9.546978E-003	  1.345129E-001	  4.614183E-001	  6.475586E-003	 -1.334759E-001	  2.897787E-001	  7.978919E-003
         0.0138	  2.554620E+001	  0.000000E+000	  3.500000E-001	  0.000000E+000	  0.000000E+000	  0.000000E+000	  6.472893E+000	  1.023843E+000	  1.433706E-002	  0.000000E+000	  2.805740E-001	  5.309986E-002	  3.610116E+000	  6.888207E-001	  1.041797E-002	  0.000000E+000	  2.562525E-001	  2.567089E-002	  1.148128E+000	  4.405932E-001	  8.831039E-003	  0.000000E+000	  2.277453E-001	  9.546855E-003	  1.267914E-001	  4.604280E-001	  6.476346E-003	  0.000000E+000	  2.904714E-001	  7.978830E-003
         0.0276	  2.554243E+001	  0.000000E+000	  3.500000E-001	  0.000000E+000	  0.000000E+000	  0.000000E+000	  6.464441E+000	  1.032346E+000	  1.515272E-002	 -9.053069E-002	  2.808499E-001	  5.309125E-002	  3.602679E+000	  6.092526E-001	  1.217531E-002	 -9.846335E-002	  2.565908E-001	  2.567051E-002	  1.141958E+000	  4.311732E-001	  7.975116E-003	 -1.101389E-001	  2.281942E-001	  9.546769E-003	  1.189008E-001	  3.769440E-001	  5.951148E-003	 -1.323847E-001	  2.911640E-001	  7.978774E-003
         0.0414	  2.553616E+001	 -1.490116E-008	  3.500000E-001	  0.000000E+000	  0.000000E+000	  0.000000E+000	  6.455070E+000	  1.036902E+000	  1.551020E-002	 -9.081823E-002	  2.811238E-001	  5.307701E-002	  3.595034E+000	  6.108118E-001	  1.219808E-002	 -9.873272E-002	  2.569138E-001	  2.566336E-002	  1.135533E+000	  4.311690E-001	  7.931188E-003	 -1.101222E-001	  2.286428E-001	  9.546665E-003	  1.108412E-001	  3.766554E-001	  5.902302E-003	 -1.323488E-001	  2.918562E-001	  7.978702E-003
         0.0552	  2.552739E+001	  0.000000E+000	  3.500000E-001	  0.000000E+000	  0.000000E+000	  0.000000E+000	  6.444785E+000	  1.033431E+000	  1.495278E-002	 -9.180929E-002	  2.813958E-001	  5.305694E-002	  3.586902E+000	  6.082845E-001	  1.196435E-002	 -9.928263E-002	  2.572327E-001	  2.565448E-002	  1.128859E+000	  4.298722E-001	  7.863693E-003	 -1.102288E-001	  2.290909E-001	  9.546538E-003	  1.026176E-001	  3.752896E-001	  5.854379E-003	 -1.324139E-001	  2.925477E-001	  7.978613E-003
         0.0690	  2.551613E+001	  0.000000E+000	  3.500000E-001	  0.000000E+000	  0.000000E+000	  0.000000E+000	  6.433603E+000	  1.027784E+000	  1.414603E-002	 -9.212023E-002	  2.816655E-001	  5.303084E-002	  3.578279E+000	  6.049358E-001	  1.168059E-002	 -9.944408E-002	  2.575476E-001	  2.564398E-002	  1.122343E+000	  4.283249E-001	  7.796645E-003	 -1.103206E-001	  2.295101E-001	  9.541747E-003	  9.433003E-002	  3.738368E-001	  5.810130E-003	 -1.324242E-001	  2.932319E-001	  7.975685E-003
         0.0828	  2.550236E+001	  0.000000E+000	  3.500000E-001	  0.000000E+000	  0.000000E+000	  0.000000E+000	  6.421528E+000	  1.022781E+000	  1.340964E-002	 -9.199132E-002	  2.819327E-001	  5.299866E-002	  3.569206E+000	  6.021044E-001	  1.143138E-002	 -9.940282E-002	  2.578568E-001	  2.563128E-002	  1.115355E+000	  4.271351E-001	  7.737167E-003	 -1.102325E-001	  2.299440E-001	  9.539516E-003	  8.583242E-002	  3.726724E-001	  5.769029E-003	 -1.323792E-001	  2.939186E-001	  7.974345E-003
         0.0966	  2.548613E+001	  0.000000E+000	  3.500000E-001	  0.000000E+000	  0.000000E+000	  0.000000E+000	  6.408574E+000	  1.018978E+000	  1.280653E-002	 -9.169777E-002	  2.821973E-001	  5.296043E-002	  3.559696E+000	  5.999888E-001	  1.122919E-002	 -9.928405E-002	  2.581601E-001	  2.561623E-002	  1.108387E+000	  4.262285E-001	  7.687211E-003	 -1.102158E-001	  2.303591E-001	  9.534372E-003	  7.724261E-002	  3.717732E-001	  5.731441E-003	 -1.323402E-001	  2.945997E-001	  7.971213E-003
         0.1104	  2.546741E+001	 -1.490116E-008	  3.500000E-001	  0.000000E+000	  0.000000E+000	  0.000000E+000	  6.394743E+000	  1.016145E+000	  1.231086E-002	 -9.135181E-002	  2.824591E-001	  5.291616E-002	  3.549755E+000	  5.984276E-001	  1.106380E-002	 -9.914389E-002	  2.584571E-001	  2.559881E-002	  1.100919E+000	  4.255591E-001	  7.641844E-003	 -1.101052E-001	  2.307908E-001	  9.532093E-003	  6.843593E-002	  3.710509E-001	  5.696088E-003	 -1.322872E-001	  2.952837E-001	  7.969847E-003
         0.1242	  2.544624E+001	  0.000000E+000	  3.500000E-001	  0.000000E+000	  0.000000E+000	  0.000000E+000	  6.380049E+000	  1.013922E+000	  1.188216E-002	 -9.100935E-002	  2.827180E-001	  5.286587E-002	  3.539388E+000	  5.972125E-001	  1.092222E-002	 -9.900244E-002	  2.587477E-001	  2.557901E-002	  1.093606E+000	  4.249097E-001	  7.601522E-003	 -1.101203E-001	  2.311943E-001	  9.525459E-003	  5.957632E-002	  3.703991E-001	  5.663589E-003	 -1.322582E-001	  2.959594E-001	  7.965806E-003
         0.1380	  2.542263E+001	 -1.490116E-008	  3.500000E-001	  0.000000E+000	  0.000000E+000	  0.000000E+000	  6.364499E+000	  1.012033E+000	  1.148984E-002	 -9.067578E-002	  2.829739E-001	  5.280961E-002	  3.528600E+000	  5.961839E-001	  1.079448E-002	 -9.886529E-002	  2.590319E-001	  2.555687E-002	  1.086046E+000	  4.243076E-001	  7.563561E-003	 -1.100648E-001	  2.315974E-001	  9.518994E-003	  5.049729E-002	  3.697841E-001	  5.632587E-003	 -1.322105E-001	  2.966388E-001	  7.964042E-003
         0.1518	  2.539658E+001	 -1.490116E-008	  3.500000E-001	  0.000000E+000	  0.000000E+000	  0.000000E+000	  6.348108E+000	  1.010303E+000	  1.111501E-002	 -9.035555E-002	  2.832264E-001	  5.274740E-002	  3.517402E+000	  5.952377E-001	  1.067421E-002	 -9.873424E-002	  2.593093E-001	  2.553237E-002	  1.078243E+000	  4.237669E-001	  7.528111E-003	 -1.100011E-001	  2.319997E-001	  9.512665E-003	  4.138753E-002	  3.691547E-001	  5.604036E-003	 -1.321878E-001	  2.973080E-001	  7.959007E-003
         0.1656	  2.536812E+001	 -1.490116E-008	  3.500000E-001	  0.000000E+000	  0.000000E+000	  0.000000E+000	  6.330876E+000	  1.008644E+000	  1.074821E-002	 -9.003861E-002	  2.834756E-001	  5.267926E-002	  3.505792E+000	  5.943204E-001	  1.055813E-002	 -9.860282E-002	  2.595801E-001	  2.550555E-002	  1.070250E+000	  4.232042E-001	  7.493891E-003	 -1.099530E-001	  2.323978E-001	  9.505943E-003	  3.204298E-002	  3.685196E-001	  5.576443E-003	 -1.321400E-001	  2.979817E-001	  7.956827E-003
         0.1794	  2.533727E+001	  1.490116E-008	  3.500000E-001	  0.000000E+000	  0.000000E+000	  0.000000E+000	  6.312827E+000	  1.006992E+000	  1.038310E-002	 -8.973641E-002	  2.837211E-001	  5.260526E-002	  3.493778E+000	  5.933979E-001	  1.044424E-002	 -9.847534E-002	  2.598441E-001	  2.547642E-002	  1.062084E+000	  4.225942E-001	  7.460445E-003	 -1.099108E-001	  2.327906E-001	  9.498690E-003	  2.269928E-002	  3.678446E-001	  5.551148E-003	 -1.321222E-001	  2.986436E-001	  7.950803E-003
         0.1932	  2.530403E+001	  0.000000E+000	  3.500000E-001	  0.000000E+000	  0.000000E+000	  0.000000E+000	  6.293970E+000	  1.005320E+000	  1.001722E-002	 -8.944111E-002	  2.839628E-001	  5.252544E-002	  3.481369E+000	  5.924512E-001	  1.033148E-002	 -9.835025E-002	  2.601013E-001	  2.544500E-002	  1.053752E+000	  4.219448E-001	  7.427901E-003	 -1.098690E-001	  2.331780E-001	  9.490881E-003	  1.321215E-002	  3.671468E-001	  5.527064E-003	 -1.320869E-001	  2.993036E-001	  7.945185E-003
         0.2070	  2.526844E+001	 -1.490116E-008	  3.500000E-001	  0.000000E+000	  0.000000E+000	  0.000000E+000	  6.274312E+000	  1.003624E+000	  9.650797E-003	 -8.914818E-002	  2.842005E-001	  5.243985E-002	  3.468564E+000	  5.914758E-001	  1.021960E-002	 -9.822465E-002	  2.603514E-001	  2.541131E-002	  1.045254E+000	  4.212654E-001	  7.396318E-003	 -1.098260E-001	  2.335594E-001	  9.482500E-003	  3.590118E-003	  3.664332E-001	  5.504116E-003	 -1.320502E-001	  2.999611E-001	  7.939877E-003
         0.2208	  2.523050E+001	  0.000000E+000	  3.500000E-001	  0.000000E+000	  0.000000E+000	  0.000000E+000	  6.253872E+000	  1.001895E+000	  9.283274E-003	 -8.886412E-002	  2.844338E-001	  5.234852E-002	  3.455377E+000	  5.904637E-001	  1.010834E-002	 -9.810299E-002	  2.605943E-001	  2.537536E-002	  1.036596E+000	  4.205587E-001	  7.365711E-003	 -1.097830E-001	  2.339348E-001	  9.473549E-003	 -6.148024E-003	  3.656889E-001	  5.482323E-003	 -1.320166E-001	  3.006149E-001	  7.934396E-003
         0.2346	  2.519026E+001	  0.000000E+000	  3.500000E-001	  0.000000E+000	  0.000000E+000	  0.000000E+000	  6.232665E+000	  1.000122E+000	  8.914292E-003	 -8.858970E-002	  2.846627E-001	  5.225153E-002	  3.441806E+000	  5.894176E-001	  9.997800E-003	 -9.797928E-002	  2.608300E-001	  2.533720E-002	  1.027786E+000	  4.198242E-001	  7.336050E-003	 -1.097410E-001	  2.343041E-001	  9.464033E-003	 -1.599203E-002	  3.649123E-001	  5.461652E-003	 -1.319894E-001	  3.012644E-001	  7.928620E-003
         0.2484	  2.514774E+001	  0.000000E+000	  3.500000E-001	  0.000000E+000	  0.000000E+000	  0.000000E+000	  6.210707E+000	  9.983077E-001	  8.544773E-003	 -8.832122E-002	  2.848869E-001	  5.214893E-002	  3.427870E+000	  5.883300E-001	  9.887725E-003	 -9.786264E-002	  2.610585E-001	  2.529685E-002	  1.018825E+000	  4.190638E-001	  7.307313E-003	 -1.096984E-001	  2.346670E-001	  9.453963E-003	 -2.593764E-002	  3.641080E-001	  5.442023E-003	 -1.319602E-001	  3.019095E-001	  7.922518E-003
         0.2622	  2.510295E+001	  0.000000E+000	  3.500000E-001	  0.000000E+000	  0.000000E+000	  0.000000E+000	  6.188015E+000	  9.964546E-001	  8.175433E-003	 -8.805989E-002	  2.851062E-001	  5.204077E-002	  3.413562E+000	  5.872090E-001	  9.778649E-003	 -9.774074E-002	  2.612798E-001	  2.525433E-002	  1.009722E+000	  4.182771E-001	  7.279463E-003	 -1.096568E-001	  2.350236E-001	  9.443342E-003	 -3.597973E-002	  3.632798E-001	  5.423393E-003	 -1.319297E-001	  3.025497E-001	  7.916083E-003
         0.2760	  2.505593E+001	  0.000000E+000	  3.500000E-001	  0.000000E+000	  0.000000E+000	  0.000000E+000	  6.164598E+000	  9.945673E-001	  7.807344E-003	 -8.780173E-002	  2.853203E-001	  5.192713E-002	  3.398888E+000	  5.860556E-001	  9.670600E-003	 -9.762034E-002	  2.614936E-001	  2.520967E-002	  1.000470E+000	  4.174671E-001	  7.252432E-003	 -1.096130E-001	  2.353736E-001	  9.432171E-003	 -4.611744E-002	  3.624302E-001	  5.405691E-003	 -1.318980E-001	  3.031849E-001	  7.909315E-003
         0.2898	  2.500670E+001	  0.000000E+000	  3.500000E-001	  0.000000E+000	  0.000000E+000	  0.000000E+000	  6.140476E+000	  9.926408E-001	  7.440537E-003	 -8.755382E-002	  2.855288E-001	  5.180805E-002	  3.383869E+000	  5.848566E-001	  9.563074E-003	 -9.750862E-002	  2.616998E-001	  2.516290E-002	  9.910800E-001	  4.166318E-001	  7.226214E-003	 -1.095707E-001	  2.357167E-001	  9.420453E-003	 -5.634479E-002	  3.615602E-001	  5.388860E-003	 -1.318659E-001	  3.038147E-001	  7.902214E-003
         0.3036	  2.495530E+001	  0.000000E+000	  3.500000E-001	  0.000000E+000	  0.000000E+000	  0.000000E+000	  6.115673E+000	  9.906691E-001	  7.074893E-003	 -8.731665E-002	  2.857318E-001	  5.168365E-002	  3.368500E+000	  5.836228E-001	  9.456664E-003	 -9.739149E-002	  2.618987E-001	  2.511407E-002	  9.815587E-001	  4.157708E-001	  7.200800E-003	 -1.095290E-001	  2.360530E-001	  9.408200E-003	 -6.665325E-002	  3.606701E-001	  5.372908E-003	 -1.318341E-001	  3.044392E-001	  7.894789E-003
         0.3174	  2.490175E+001	  1.490116E-008	  3.500000E-001	  0.000000E+000	  0.000000E+000	  0.000000E+000	  6.090194E+000	  9.886644E-001	  6.712258E-003	 -8.707961E-002	  2.859288E-001	  5.155396E-002	  3.352787E+000	  5.823565E-001	  9.351581E-003	 -9.727642E-002	  2.620899E-001	  2.506319E-002	  9.719060E-001	  4.148867E-001	  7.176138E-003	 -1.094864E-001	  2.363823E-001	  9.395418E-003	 -7.704709E-002	  3.597624E-001	  5.357727E-003	 -1.318009E-001	  3.050579E-001	  7.887035E-003
         0.3312	  2.484609E+001	  0.000000E+000	  3.500000E-001	  0.000000E+000	  0.000000E+000	  0.000000E+000	  6.064069E+000	  9.866187E-001	  6.352305E-003	 -8.685707E-002	  2.861195E-001	  5.141905E-002	  3.336741E+000	  5.810521E-001	  9.247556E-003	 -9.716448E-002	  2.622735E-001	  2.501030E-002	  9.621252E-001	  4.139807E-001	  7.152244E-003	 -1.094436E-001	  2.367044E-001	  9.382106E-003	 -8.751350E-002	  3.588368E-001	  5.343344E-003	 -1.317686E-001	  3.056706E-001	  7.878966E-003
         0.3450	  2.478835E+001	  0.000000E+000	  3.500000E-001	  0.000000E+000	  0.000000E+000	  0.000000E+000	  6.037317E+000	  9.845250E-001	  5.994797E-003	 -8.664620E-002	  2.863038E-001	  5.127905E-002	  3.320372E+000	  5.797087E-001	  9.144649E-003	 -9.705517E-002	  2.624495E-001	  2.495545E-002	  9.522282E-001	  4.130513E-001	  7.129110E-003	 -1.094024E-001	  2.370192E-001	  9.368280E-003	 -9.805077E-002	  3.578945E-001	  5.329702E-003	 -1.317358E-001	  3.062772E-001	  7.870580E-003
         0.3588	  2.472856E+001	  0.000000E+000	  3.500000E-001	  0.000000E+000	  0.000000E+000	  0.000000E+000	  6.009946E+000	  9.824075E-001	  5.642563E-003	 -8.642999E-002	  2.864813E-001	  5.113398E-002	  3.303686E+000	  5.783284E-001	  9.043097E-003	 -9.694744E-002	  2.626176E-001	  2.489865E-002	  9.422117E-001	  4.121014E-001	  7.106721E-003	 -1.093597E-001	  2.373265E-001	  9.353938E-003	 -1.086581E-001	  3.569372E-001	  5.316760E-003	 -1.317023E-001	  3.068774E-001	  7.861879E-003
         0.3726	  2.466677E+001	 -1.490116E-008	  3.500000E-001	  0.000000E+000	  0.000000E+000	  0.000000E+000	  5.981988E+000	  9.802489E-001	  5.294472E-003	 -8.623444E-002	  2.866517E-001	  5.098395E-002	  3.286686E+000	  5.769173E-001	  8.943185E-003	 -9.683800E-002	  2.627780E-001	  2.483996E-002	  9.320843E-001	  4.111312E-001	  7.085070E-003	 -1.093178E-001	  2.376262E-001	  9.339091E-003	 -1.193311E-001	  3.559652E-001	  5.304497E-003	 -1.316687E-001	  3.074710E-001	  7.852864E-003
         0.3864	  2.460300E+001	  1.490116E-008	  3.500000E-001	  0.000000E+000	  0.000000E+000	  0.000000E+000	  5.953456E+000	  9.780529E-001	  4.951149E-003	 -8.604075E-002	  2.868147E-001	  5.082904E-002	  3.269384E+000	  5.754715E-001	  8.844852E-003	 -9.673268E-002	  2.629304E-001	  2.477939E-002	  9.218493E-001	  4.101410E-001	  7.064156E-003	 -1.092757E-001	  2.379183E-001	  9.323746E-003	 -1.300596E-001	  3.549780E-001	  5.292915E-003	 -1.316358E-001	  3.080579E-001	  7.843548E-003
         0.4002	  2.453729E+001	  1.490116E-008	  3.500000E-001	  0.000000E+000	  0.000000E+000	  0.000000E+000	  5.924371E+000	  9.758263E-001	  4.613876E-003	 -8.585495E-002	  2.869702E-001	  5.066933E-002	  3.251791E+000	  5.739883E-001	  8.747950E-003	 -9.663030E-002	  2.630748E-001	  2.471699E-002	  9.115075E-001	  4.091322E-001	  7.043943E-003	 -1.092331E-001	  2.382025E-001	  9.307908E-003	 -1.408445E-001	  3.539778E-001	  5.281974E-003	 -1.316021E-001	  3.086376E-001	  7.833929E-003
         0.4140	  2.446969E+001	  0.000000E+000	  3.500000E-001	  0.000000E+000	  0.000000E+000	  0.000000E+000	  5.894755E+000	  9.735606E-001	  4.281968E-003	 -8.568092E-002	  2.871178E-001	  5.050493E-002	  3.233909E+000	  5.724729E-001	  8.652866E-003	 -9.652727E-002	  2.632112E-001	  2.465278E-002	  9.010718E-001	  4.081037E-001	  7.024474E-003	 -1.091922E-001	  2.384787E-001	  9.291585E-003	 -1.516797E-001	  3.529652E-001	  5.271655E-003	 -1.315684E-001	  3.092102E-001	  7.824013E-003
         0.4278	  2.440023E+001	  1.490116E-008	  3.500000E-001	  0.000000E+000	  0.000000E+000	  0.000000E+000	  5.864628E+000	  9.712606E-001	  3.956467E-003	 -8.551264E-002	  2.872572E-001	  5.033591E-002	  3.215757E+000	  5.709214E-001	  8.559436E-003	 -9.643041E-002	  2.633395E-001	  2.458681E-002	  8.905405E-001	  4.070576E-001	  7.005710E-003	 -1.091502E-001	  2.387468E-001	  9.274789E-003	 -1.625568E-001	  3.519403E-001	  5.261976E-003	 -1.315352E-001	  3.097753E-001	  7.813804E-003
         0.4416	  2.432894E+001	  0.000000E+000	  3.500000E-001	  0.000000E+000	  0.000000E+000	  0.000000E+000	  5.834017E+000	  9.689226E-001	  3.637224E-003	 -8.535748E-002	  2.873880E-001	  5.016237E-002	  3.197334E+000	  5.693399E-001	  8.468017E-003	 -9.633095E-002	  2.634594E-001	  2.451909E-002	  8.799196E-001	  4.059949E-001	  6.987654E-003	 -1.091085E-001	  2.390066E-001	  9.257520E-003	 -1.734791E-001	  3.509049E-001	  5.252872E-003	 -1.315010E-001	  3.103327E-001	  7.803305E-003
         0.4554	  2.425588E+001	  0.000000E+000	  3.500000E-001	  0.000000E+000	  0.000000E+000	  0.000000E+000	  5.802932E+000	  9.665607E-001	  3.325969E-003	 -8.520108E-002	  2.875101E-001	  4.998441E-002	  3.178653E+000	  5.677289E-001	  8.378685E-003	 -9.623441E-002	  2.635710E-001	  2.444968E-002	  8.692132E-001	  4.049155E-001	  6.970312E-003	 -1.090670E-001	  2.392580E-001	  9.239786E-003	 -1.844373E-001	  3.498589E-001	  5.244344E-003	 -1.314673E-001	  3.108822E-001	  7.792522E-003
         0.4692	  2.418108E+001	  0.000000E+000	  3.500000E-001	  0.000000E+000	  0.000000E+000	  0.000000E+000	  5.771406E+000	  9.641619E-001	  3.021806E-003	 -8.506289E-002	  2.876231E-001	  4.980217E-002	  3.159724E+000	  5.660842E-001	  8.291304E-003	 -9.614158E-002	  2.636741E-001	  2.437861E-002	  8.584309E-001	  4.038192E-001	  6.953686E-003	 -1.090265E-001	  2.395010E-001	  9.221601E-003	 -1.954288E-001	  3.488027E-001	  5.236384E-003	 -1.314334E-001	  3.114237E-001	  7.781457E-003
         0.4830	  2.410459E+001	  0.000000E+000	  3.500000E-001	  0.000000E+000	  0.000000E+000	  0.000000E+000	  5.739451E+000	  9.617352E-001	  2.725840E-003	 -8.492436E-002	  2.877268E-001	  4.961568E-002	  3.140558E+000	  5.644070E-001	  8.205935E-003	 -9.605130E-002	  2.637687E-001	  2.430591E-002	  8.475710E-001	  4.027082E-001	  6.937753E-003	 -1.089851E-001	  2.397353E-001	  9.202970E-003	 -2.064467E-001	  3.477370E-001	  5.228993E-003	 -1.313998E-001	  3.119567E-001	  7.770117E-003
         0.4968	  2.402643E+001	  1.490116E-008	  3.500000E-001	  0.000000E+000	  0.000000E+000	  0.000000E+000	  5.707086E+000	  9.592864E-001	  2.438754E-003	 -8.479189E-002	  2.878210E-001	  4.942512E-002	  3.121161E+000	  5.627026E-001	  8.122951E-003	 -9.596051E-002	  2.638547E-001	  2.423165E-002	  8.366392E-001	  4.015831E-001	  6.922528E-003	 -1.089440E-001	  2.399609E-001	  9.183896E-003	 -2.174894E-001	  3.466628E-001	  5.222145E-003	 -1.313658E-001	  3.124813E-001	  7.758504E-003
         0.5106	  2.394668E+001	  0.000000E+000	  3.500000E-001	  0.000000E+000	  0.000000E+000	  0.000000E+000	  5.674332E+000	  9.568065E-001	  2.159923E-003	 -8.466973E-002	  2.879057E-001	  4.923064E-002	  3.101548E+000	  5.609684E-001	  8.042157E-003	 -9.587422E-002	  2.639319E-001	  2.415585E-002	  8.256469E-001	  4.004424E-001	  6.908011E-003	 -1.089045E-001	  2.401775E-001	  9.164395E-003	 -2.285484E-001	  3.455803E-001	  5.215842E-003	 -1.313324E-001	  3.129971E-001	  7.746627E-003
         0.5244	  2.386535E+001	 -1.490116E-008	  3.500000E-001	  0.000000E+000	  0.000000E+000	  0.000000E+000	  5.641201E+000	  9.543023E-001	  1.890033E-003	 -8.454802E-002	  2.879808E-001	  4.903238E-002	  3.081720E+000	  5.592084E-001	  7.963836E-003	 -9.578662E-002	  2.640003E-001	  2.407854E-002	  8.145897E-001	  3.992890E-001	  6.894164E-003	 -1.088636E-001	  2.403853E-001	  9.144472E-003	 -2.396252E-001	  3.444907E-001	  5.210049E-003	 -1.312982E-001	  3.135040E-001	  7.734486E-003
         0.5382	  2.378250E+001	  1.490116E-008	  3.500000E-001	  0.000000E+000	  0.000000E+000	  0.000000E+000	  5.607707E+000	  9.517757E-001	  1.629412E-003	 -8.443051E-002	  2.880462E-001	  4.883049E-002	  3.061699E+000	  5.574165E-001	  7.887736E-003	 -9.570657E-002	  2.640597E-001	  2.399978E-002	  8.034787E-001	  3.981224E-001	  6.881036E-003	 -1.088241E-001	  2.405840E-001	  9.124135E-003	 -2.507089E-001	  3.433939E-001	  5.204786E-003	 -1.312649E-001	  3.140017E-001	  7.722091E-003
         0.5520	  2.369818E+001	  0.000000E+000	  3.500000E-001	  0.000000E+000	  0.000000E+000	  0.000000E+000	  5.573870E+000	  9.492184E-001	  1.377404E-003	 -8.432060E-002	  2.881021E-001	  4.862508E-002	  3.041624E+000	  5.555291E-001	  7.811755E-003	 -9.568789E-002	  2.641044E-001	  2.391743E-002	  7.923190E-001	  3.969428E-001	  6.868601E-003	 -1.087850E-001	  2.407735E-001	  9.103392E-003	 -2.617986E-001	  3.422907E-001	  5.200028E-003	 -1.312314E-001	  3.144901E-001	  7.709444E-003
         0.5658	  2.361241E+001	  0.000000E+000	  3.500000E-001	  0.000000E+000	  0.000000E+000	  0.000000E+000	  5.539701E+000	  9.466296E-001	  1.133978E-003	 -8.421487E-002	  2.881483E-001	  4.841630E-002	  3.021157E+000	  5.537700E-001	  7.744402E-003	 -9.550488E-002	  2.641485E-001	  2.383702E-002	  7.811081E-001	  3.957524E-001	  6.856844E-003	 -1.087448E-001	  2.409536E-001	  9.082252E-003	 -2.728857E-001	  3.411815E-001	  5.195785E-003	 -1.311984E-001	  3.149690E-001	  7.696553E-003
         0.5796	  2.352527E+001	  0.000000E+000	  3.500000E-001	  0.000000E+000	  0.000000E+000	  0.000000E+000	  5.505207E+000	  9.440191E-001	  8.998215E-004	 -8.410637E-002	  2.881850E-001	  4.820428E-002	  3.000553E+000	  5.519741E-001	  7.679254E-003	 -9.543908E-002	  2.641823E-001	  2.375487E-002	  7.698579E-001	  3.945503E-001	  6.845780E-003	 -1.087063E-001	  2.411243E-001	  9.060726E-003	 -2.839762E-001	  3.400681E-001	  5.191993E-003	 -1.311642E-001	  3.154381E-001	  7.683415E-003
         0.5934	  2.343678E+001	  0.000000E+000	  3.500000E-001	  0.000000E+000	  0.000000E+000	  0.000000E+000	  5.470410E+000	  9.413719E-001	  6.739497E-004	 -8.401069E-002	  2.882122E-001	  4.798921E-002	  2.979825E+000	  5.500447E-001	  7.611379E-003	 -9.539323E-002	  2.642051E-001	  2.367087E-002	  7.585701E-001	  3.933369E-001	  6.835368E-003	 -1.086677E-001	  2.412855E-001	  9.038818E-003	 -2.950531E-001	  3.389491E-001	  5.188711E-003	 -1.311317E-001	  3.158972E-001	  7.670041E-003
         0.6072	  2.334699E+001	  1.490116E-008	  3.500000E-001	  0.000000E+000	  0.000000E+000	  0.000000E+000	  5.435319E+000	  9.386888E-001	  4.561543E-004	 -8.391576E-002	  2.882301E-001	  4.777120E-002	  2.958965E+000	  5.480767E-001	  7.545575E-003	 -9.533172E-002	  2.642180E-001	  2.358548E-002	  7.472509E-001	  3.921132E-001	  6.825648E-003	 -1.086296E-001	  2.414371E-001	  9.016542E-003	 -3.061205E-001	  3.378257E-001	  5.185887E-003	 -1.310984E-001	  3.163461E-001	  7.656438E-003
         0.6210	  2.325596E+001	 -1.490116E-008	  3.500000E-001	  0.000000E+000	  0.000000E+000	  0.000000E+000	  5.399946E+000	  9.359738E-001	  2.469718E-004	 -8.382481E-002	  2.882387E-001	  4.755041E-002	  2.937968E+000	  5.461157E-001	  7.484056E-003	 -9.525892E-002	  2.642210E-001	  2.349882E-002	  7.359051E-001	  3.908798E-001	  6.816611E-003	 -1.085920E-001	  2.415791E-001	  8.993913E-003	 -3.171684E-001	  3.366986E-001	  5.183544E-003	 -1.310660E-001	  3.167849E-001	  7.642606E-003
         0.6348	  2.316373E+001	  0.000000E+000	  3.500000E-001	  0.000000E+000	  0.000000E+000	  0.000000E+000	  5.364303E+000	  9.332274E-001	  4.640222E-005	 -8.373602E-002	  2.882385E-001	  4.732702E-002	  2.916851E+000	  5.441518E-001	  7.426299E-003	 -9.519066E-002	  2.642143E-001	  2.341099E-002	  7.245345E-001	  3.896378E-001	  6.808221E-003	 -1.085541E-001	  2.417115E-001	  8.970935E-003	 -3.281966E-001	  3.355685E-001	  5.181637E-003	 -1.310332E-001	  3.172131E-001	  7.628558E-003
         0.6486	  2.307034E+001	  0.000000E+000	  3.500000E-001	  0.000000E+000	  0.000000E+000	  0.000000E+000	  5.328402E+000	  9.304476E-001	 -1.458228E-004	 -8.365159E-002	  2.882292E-001	  4.710115E-002	  2.895626E+000	  5.421703E-001	  7.371619E-003	 -9.512725E-002	  2.641974E-001	  2.332203E-002	  7.131460E-001	  3.883870E-001	  6.800491E-003	 -1.085171E-001	  2.418340E-001	  8.947616E-003	 -3.391983E-001	  3.344357E-001	  5.180191E-003	 -1.310010E-001	  3.176307E-001	  7.614297E-003
         0.6624	  2.297584E+001	 -1.490116E-008	  3.500000E-001	  0.000000E+000	  0.000000E+000	  0.000000E+000	  5.292249E+000	  9.276364E-001	 -3.294945E-004	 -8.356798E-002	  2.882113E-001	  4.687296E-002	  2.874296E+000	  5.401729E-001	  7.319912E-003	 -9.506266E-002	  2.641705E-001	  2.323197E-002	  7.017404E-001	  3.871284E-001	  6.793410E-003	 -1.084798E-001	  2.419467E-001	  8.923969E-003	 -3.501727E-001	  3.333009E-001	  5.179159E-003	 -1.309686E-001	  3.180375E-001	  7.599824E-003
         0.6762	  2.288028E+001	 -1.490116E-008	  3.500000E-001	  0.000000E+000	  0.000000E+000	  0.000000E+000	  5.255858E+000	  9.247892E-001	 -5.050600E-004	 -8.349001E-002	  2.881850E-001	  4.664261E-002	  2.852878E+000	  5.381559E-001	  7.271074E-003	 -9.500256E-002	  2.641332E-001	  2.314085E-002	  6.903255E-001	  3.858616E-001	  6.786950E-003	 -1.084434E-001	  2.420495E-001	  8.900005E-003	 -3.611155E-001	  3.321643E-001	  5.178548E-003	 -1.309364E-001	  3.184334E-001	  7.585148E-003
         0.6900	  2.278370E+001	  0.000000E+000	  3.500000E-001	  0.000000E+000	  0.000000E+000	  0.000000E+000	  5.219233E+000	  9.219133E-001	 -6.721616E-004	 -8.340883E-002	  2.881507E-001	  4.641024E-002	  2.831385E+000	  5.361152E-001	  7.224865E-003	 -9.494718E-002	  2.640854E-001	  2.304872E-002	  6.789063E-001	  3.845871E-001	  6.781142E-003	 -1.084076E-001	  2.421424E-001	  8.875734E-003	 -3.720148E-001	  3.310255E-001	  5.178392E-003	 -1.309055E-001	  3.188182E-001	  7.570280E-003
         0.7038	  2.268616E+001	  0.000000E+000	  3.500000E-001	  0.000000E+000	  0.000000E+000	  0.000000E+000	  5.182379E+000	  9.190079E-001	 -8.307695E-004	 -8.332924E-002	  2.881085E-001	  4.617603E-002	  2.809822E+000	  5.340578E-001	  7.181615E-003	 -9.489038E-002	  2.640271E-001	  2.295562E-002	  6.674853E-001	  3.833063E-001	  6.775949E-003	 -1.083718E-001	  2.422252E-001	  8.851163E-003	 -3.828765E-001	  3.298867E-001	  5.178623E-003	 -1.308737E-001	  3.191916E-001	  7.555221E-003
         0.7176	  2.258769E+001	  0.000000E+000	  3.500000E-001	  0.000000E+000	  0.000000E+000	  0.000000E+000	  5.145320E+000	  9.160535E-001	 -9.827018E-004	 -8.326348E-002	  2.880585E-001	  4.594004E-002	  2.788205E+000	  5.319836E-001	  7.141255E-003	 -9.483794E-002	  2.639579E-001	  2.286159E-002	  6.560670E-001	  3.820198E-001	  6.771386E-003	 -1.083364E-001	  2.422981E-001	  8.826305E-003	 -3.936929E-001	  3.287478E-001	  5.179245E-003	 -1.308425E-001	  3.195537E-001	  7.539974E-003
         0.7314	  2.248835E+001	  0.000000E+000	  3.500000E-001	  0.000000E+000	  0.000000E+000	  0.000000E+000	  5.108076E+000	  9.130435E-001	 -1.128316E-003	 -8.320790E-002	  2.880006E-001	  4.570242E-002	  2.766552E+000	  5.298885E-001	  7.103644E-003	 -9.479064E-002	  2.638777E-001	  2.276665E-002	  6.446528E-001	  3.807279E-001	  6.767411E-003	 -1.083008E-001	  2.423608E-001	  8.801173E-003	 -4.044607E-001	  3.276086E-001	  5.180243E-003	 -1.308116E-001	  3.199043E-001	  7.524550E-003
         0.7452	  2.238818E+001	  0.000000E+000	  3.500000E-001	  0.000000E+000	  0.000000E+000	  0.000000E+000	  5.070666E+000	  9.099894E-001	 -1.266450E-003	 -8.315746E-002	  2.879345E-001	  4.546322E-002	  2.744868E+000	  5.277801E-001	  7.069074E-003	 -9.474263E-002	  2.637866E-001	  2.267084E-002	  6.332533E-001	  3.794301E-001	  6.764058E-003	 -1.082668E-001	  2.424135E-001	  8.775773E-003	 -4.151722E-001	  3.264695E-001	  5.181663E-003	 -1.307815E-001	  3.202432E-001	  7.508960E-003
         0.7590	  2.228723E+001	 -1.490116E-008	  3.500000E-001	  0.000000E+000	  0.000000E+000	  0.000000E+000	  5.033114E+000	  9.068952E-001	 -1.396745E-003	 -8.311725E-002	  2.878597E-001	  4.522255E-002	  2.723163E+000	  5.256612E-001	  7.037573E-003	 -9.469618E-002	  2.636840E-001	  2.257417E-002	  6.218648E-001	  3.781282E-001	  6.761275E-003	 -1.082318E-001	  2.424561E-001	  8.750113E-003	 -4.258298E-001	  3.253320E-001	  5.183414E-003	 -1.307510E-001	  3.205704E-001	  7.493197E-003
         0.7728	  2.218554E+001	  0.000000E+000	  3.500000E-001	  0.000000E+000	  0.000000E+000	  0.000000E+000	  4.995447E+000	  9.037614E-001	 -1.518875E-003	 -8.308870E-002	  2.877761E-001	  4.498048E-002	  2.701456E+000	  5.235279E-001	  7.009037E-003	 -9.465465E-002	  2.635699E-001	  2.247669E-002	  6.104977E-001	  3.768218E-001	  6.759092E-003	 -1.081982E-001	  2.424885E-001	  8.724214E-003	 -4.364269E-001	  3.241961E-001	  5.185530E-003	 -1.307212E-001	  3.208857E-001	  7.477277E-003
         0.7866	  2.208317E+001	  0.000000E+000	  3.500000E-001	  0.000000E+000	  0.000000E+000	  0.000000E+000	  4.957692E+000	  9.005971E-001	 -1.632035E-003	 -8.306752E-002	  2.876831E-001	  4.473710E-002	  2.679755E+000	  5.213822E-001	  6.983444E-003	 -9.461440E-002	  2.634441E-001	  2.237840E-002	  5.991527E-001	  3.755115E-001	  6.757464E-003	 -1.081645E-001	  2.425108E-001	  8.698077E-003	 -4.469590E-001	  3.230617E-001	  5.188011E-003	 -1.306918E-001	  3.211890E-001	  7.461204E-003