
Predictions were generated on 06-Nov-2014 at 13:58:41 using FAST (v8.08.00c-bjj, 30-June-2014), compiled for 32-bit systems using single precision
 linked with  NWTC Subroutine Library (v2.03.03b-bjj, 30-June-2014); ElastoDyn (v1.01.06b-bjj, 30-June-2014); InflowWind (v2.00.01b-bjj, 30-June-2014); AeroDyn (v14.02.01c-bjj, 30-June-2014)

Description from the FAST input file: FAST Certification Test #10: UAE Phase VI (upwind) with no DOFs in a ramped wind.

Time      	WindVxi   	WindVyi   	WindVzi   	RootFxc1  	RootFyc1  	RootFzc1  	RootFxc2  	RootFyc2  	RootFzc2  	RootMOoP1 	RootMIP1  	RootMzc1  	RotTorq   	RotThrust 	RotPwr    	LSSGagMya 	LSSGagMza 	YawBrMxp  	YawBrMyp  
(s)       	(m/s)     	(m/s)     	(m/s)     	(kN)      	(kN)      	(kN)      	(kN)      	(kN)      	(kN)      	(kN·m)    	(kN·m)    	(kN·m)    	(kN·m)    	(kN)      	(kW)      	(kN·m)    	(kN·m)    	(kN·m)    	(kN·m)    
    0.0000	 5.000E+00	 0.000E+00	 0.000E+00	 0.000E+00	-6.904E-09	 6.798E+00	-2.842E-14	 5.752E-08	 7.956E+00	-2.220E-15	 1.186E-08	 6.617E-24	-1.127E-07	 0.000E+00	-8.442E-07	-1.692E+00	-1.733E-07	 5.078E+00	-6.052E+00
    0.0524	 5.000E+00	 0.000E+00	 0.000E+00	 2.080E-01	-2.432E-01	 6.842E+00	 2.546E-01	 2.093E-01	 7.912E+00	 6.127E-01	 4.258E-01	 2.980E-08	 1.050E-01	 4.626E-01	 7.865E-01	-1.819E+00	 6.502E-01	 5.112E+00	-5.920E+00
    0.1048	 5.000E+00	 0.000E+00	 0.000E+00	 1.781E-01	-4.253E-01	 6.968E+00	 2.892E-01	 3.904E-01	 7.787E+00	 5.135E-01	 7.335E-01	 0.000E+00	 1.089E-01	 4.673E-01	 8.159E-01	-1.692E+00	 1.195E+00	 5.175E+00	-6.001E+00
    0.1572	 5.000E+00	 0.000E+00	 0.000E+00	 1.526E-01	-5.454E-01	 7.156E+00	 3.135E-01	 5.096E-01	 7.599E+00	 4.330E-01	 9.365E-01	-1.192E-07	 1.133E-01	 4.661E-01	 8.489E-01	-1.315E+00	 1.558E+00	 5.106E+00	-5.915E+00
    0.2097	 5.000E+00	 0.000E+00	 0.000E+00	 1.351E-01	-5.846E-01	 7.377E+00	 3.233E-01	 5.478E-01	 7.377E+00	 3.862E-01	 1.003E+00	 0.000E+00	 1.157E-01	 4.584E-01	 8.668E-01	-7.438E-01	 1.684E+00	 4.940E+00	-5.707E+00
    0.2621	 5.000E+00	 0.000E+00	 0.000E+00	 1.322E-01	-5.372E-01	 7.599E+00	 3.175E-01	 5.004E-01	 7.156E+00	 3.909E-01	 9.220E-01	-5.960E-08	 1.145E-01	 4.497E-01	 8.576E-01	-5.512E-02	 1.553E+00	 4.772E+00	-5.496E+00
    0.3145	 5.000E+00	 0.000E+00	 0.000E+00	 1.460E-01	-4.111E-01	 7.787E+00	 2.982E-01	 3.748E-01	 6.968E+00	 4.526E-01	 7.074E-01	-4.470E-08	 1.103E-01	 4.442E-01	 8.266E-01	 6.464E-01	 1.186E+00	 4.706E+00	-5.412E+00
    0.3669	 5.000E+00	 0.000E+00	 0.000E+00	 1.750E-01	-2.245E-01	 7.912E+00	 2.709E-01	 1.896E-01	 6.842E+00	 5.652E-01	 3.921E-01	-3.725E-09	 1.056E-01	 4.459E-01	 7.912E-01	 1.252E+00	 6.386E-01	 4.780E+00	-5.503E+00
    0.4193	 5.000E+00	 0.000E+00	 0.000E+00	 2.146E-01	-6.682E-03	 7.956E+00	 2.398E-01	-2.729E-02	 6.798E+00	 7.090E-01	 2.545E-02	 5.684E-14	 1.040E-01	 4.544E-01	 7.792E-01	 1.668E+00	-6.185E-03	 4.951E+00	-5.716E+00
    0.4717	 5.000E+00	 0.000E+00	 0.000E+00	 2.546E-01	 2.093E-01	 7.912E+00	 2.080E-01	-2.432E-01	 6.842E+00	 8.447E-01	-3.380E-01	-1.490E-08	 1.050E-01	 4.626E-01	 7.865E-01	 1.819E+00	-6.502E-01	 5.112E+00	-5.920E+00
    0.5241	 5.000E+00	 0.000E+00	 0.000E+00	 2.892E-01	 3.904E-01	 7.787E+00	 1.781E-01	-4.253E-01	 6.968E+00	 9.524E-01	-6.424E-01	 0.000E+00	 1.089E-01	 4.673E-01	 8.159E-01	 1.692E+00	-1.195E+00	 5.175E+00	-6.001E+00
    0.5766	 5.000E+00	 0.000E+00	 0.000E+00	 3.135E-01	 5.096E-01	 7.599E+00	 1.526E-01	-5.454E-01	 7.156E+00	 1.019E+00	-8.413E-01	 0.000E+00	 1.133E-01	 4.661E-01	 8.489E-01	 1.315E+00	-1.558E+00	 5.106E+00	-5.915E+00
    0.6290	 5.000E+00	 0.000E+00	 0.000E+00	 3.233E-01	 5.478E-01	 7.377E+00	 1.351E-01	-5.846E-01	 7.377E+00	 1.034E+00	-9.055E-01	 5.960E-08	 1.157E-01	 4.584E-01	 8.668E-01	 7.438E-01	-1.684E+00	 4.940E+00	-5.707E+00
    0.6814	 5.000E+00	 0.000E+00	 0.000E+00	 3.175E-01	 5.004E-01	 7.156E+00	 1.322E-01	-5.372E-01	 7.599E+00	 9.993E-01	-8.263E-01	 1.937E-07	 1.145E-01	 4.497E-01	 8.576E-01	 5.512E-02	-1.553E+00	 4.772E+00	-5.496E+00
    0.7338	 5.000E+00	 0.000E+00	 0.000E+00	 2.982E-01	 3.748E-01	 6.968E+00	 1.460E-01	-4.111E-01	 7.787E+00	 9.250E-01	-6.155E-01	 1.080E-07	 1.103E-01	 4.442E-01	 8.266E-01	-6.464E-01	-1.186E+00	 4.706E+00	-5.412E+00
    0.7862	 5.000E+00	 0.000E+00	 0.000E+00	 2.709E-01	 1.896E-01	 6.842E+00	 1.750E-01	-2.245E-01	 7.912E+00	 8.276E-01	-3.042E-01	 2.980E-08	 1.056E-01	 4.459E-01	 7.912E-01	-1.252E+00	-6.386E-01	 4.780E+00	-5.503E+00
    0.8386	 5.000E+00	 0.000E+00	 0.000E+00	 2.398E-01	-2.729E-02	 6.798E+00	 2.146E-01	-6.681E-03	 7.956E+00	 7.203E-01	 6.130E-02	 1.137E-13	 1.040E-01	 4.544E-01	 7.792E-01	-1.668E+00	 6.186E-03	 4.951E+00	-5.716E+00
    0.8910	 5.000E+00	 0.000E+00	 0.000E+00	 2.080E-01	-2.432E-01	 6.842E+00	 2.546E-01	 2.093E-01	 7.912E+00	 6.127E-01	 4.258E-01	-4.470E-08	 1.050E-01	 4.626E-01	 7.865E-01	-1.819E+00	 6.502E-01	 5.112E+00	-5.920E+00
    0.9435	 5.000E+00	 0.000E+00	 0.000E+00	 1.781E-01	-4.253E-01	 6.968E+00	 2.892E-01	 3.904E-01	 7.787E+00	 5.135E-01	 7.335E-01	 2.980E-08	 1.089E-01	 4.673E-01	 8.159E-01	-1.692E+00	 1.195E+00	 5.175E+00	-6.001E+00
    0.9959	 5.000E+00	 0.000E+00	 0.000E+00	 1.526E-01	-5.454E-01	 7.156E+00	 3.135E-01	 5.096E-01	 7.599E+00	 4.330E-01	 9.365E-01	 0.000E+00	 1.133E-01	 4.661E-01	 8.489E-01	-1.315E+00	 1.558E+00	 5.106E+00	-5.915E+00
    1.0483	 5.000E+00	 0.000E+00	 0.000E+00	 1.351E-01	-5.846E-01	 7.377E+00	 3.233E-01	 5.478E-01	 7.377E+00	 3.862E-01	 1.003E+00	-5.960E-08	 1.157E-01	 4.584E-01	 8.668E-01	-7.438E-01	 1.684E+00	 4.940E+00	-5.707E+00
    1.1007	 5.000E+00	 0.000E+00	 0.000E+00	 1.322E-01	-5.372E-01	 7.599E+00	 3.175E-01	 5.004E-01	 7.156E+00	 3.909E-01	 9.220E-01	-5.960E-08	 1.145E-01	 4.497E-01	 8.576E-01	-5.512E-02	 1.553E+00	 4.772E+00	-5.496E+00
    1.1531	 5.000E+00	 0.000E+00	 0.000E+00	 1.460E-01	-4.111E-01	 7.787E+00	 2.982E-01	 3.748E-01	 6.968E+00	 4.526E-01	 7.074E-01	 2.235E-08	 1.103E-01	 4.442E-01	 8.266E-01	 6.464E-01	 1.186E+00	 4.706E+00	-5.412E+00
    1.2055	 5.000E+00	 0.000E+00	 0.000E+00	 1.750E-01	-2.245E-01	 7.912E+00	 2.709E-01	 1.896E-01	 6.842E+00	 5.652E-01	 3.921E-01	 1.863E-08	 1.056E-01	 4.459E-01	 7.912E-01	 1.252E+00	 6.386E-01	 4.780E+00	-5.503E+00
    1.2579	 5.000E+00	 0.000E+00	 0.000E+00	 2.146E-01	-6.681E-03	 7.956E+00	 2.398E-01	-2.729E-02	 6.798E+00	 7.090E-01	 2.545E-02	 0.000E+00	 1.040E-01	 4.544E-01	 7.792E-01	 1.668E+00	-6.188E-03	 4.951E+00	-5.716E+00
    1.3104	 5.000E+00	 0.000E+00	 0.000E+00	 2.546E-01	 2.093E-01	 7.912E+00	 2.080E-01	-2.432E-01	 6.842E+00	 8.447E-01	-3.380E-01	 0.000E+00	 1.050E-01	 4.626E-01	 7.865E-01	 1.819E+00	-6.502E-01	 5.112E+00	-5.920E+00
    1.3628	 5.000E+00	 0.000E+00	 0.000E+00	 2.892E-01	 3.904E-01	 7.787E+00	 1.781E-01	-4.253E-01	 6.968E+00	 9.524E-01	-6.424E-01	 0.000E+00	 1.089E-01	 4.673E-01	 8.159E-01	 1.692E+00	-1.195E+00	 5.175E+00	-6.001E+00
    1.4152	 5.000E+00	 0.000E+00	 0.000E+00	 3.135E-01	 5.096E-01	 7.599E+00	 1.526E-01	-5.454E-01	 7.156E+00	 1.019E+00	-8.413E-01	 5.960E-08	 1.133E-01	 4.661E-01	 8.489E-01	 1.315E+00	-1.558E+00	 5.106E+00	-5.915E+00
    1.4676	 5.000E+00	 0.000E+00	 0.000E+00	 3.233E-01	 5.478E-01	 7.377E+00	 1.351E-01	-5.846E-01	 7.377E+00	 1.034E+00	-9.055E-01	 5.960E-08	 1.157E-01	 4.584E-01	 8.668E-01	 7.438E-01	-1.684E+00	 4.940E+00	-5.707E+00
    1.5200	 5.000E+00	 0.000E+00	 0.000E+00	 3.175E-01	 5.004E-01	 7.156E+00	 1.322E-01	-5.372E-01	 7.599E+00	 9.993E-01	-8.263E-01	 1.490E-08	 1.145E-01	 4.497E-01	 8.576E-01	 5.512E-02	-1.553E+00	 4.772E+00	-5.496E+00
    1.5724	 5.000E+00	 0.000E+00	 0.000E+00	 2.982E-01	 3.748E-01	 6.968E+00	 1.460E-01	-4.111E-01	 7.787E+00	 9.250E-01	-6.155E-01	 5.588E-08	 1.103E-01	 4.442E-01	 8.266E-01	-6.464E-01	-1.186E+00	 4.706E+00	-5.412E+00
    1.6249	 5.000E+00	 0.000E+00	 0.000E+00	 2.709E-01	 1.896E-01	 6.842E+00	 1.750E-01	-2.245E-01	 7.912E+00	 8.276E-01	-3.042E-01	 2.235E-08	 1.056E-01	 4.459E-01	 7.912E-01	-1.252E+00	-6.386E-01	 4.780E+00	-5.503E+00
    1.6773	 5.000E+00	 0.000E+00	 0.000E+00	 2.398E-01	-2.729E-02	 6.798E+00	 2.146E-01	-6.680E-03	 7.956E+00	 7.203E-01	 6.130E-02	 2.274E-13	 1.040E-01	 4.544E-01	 7.792E-01	-1.668E+00	 6.189E-03	 4.951E+00	-5.716E+00
    1.7297	 5.000E+00	 0.000E+00	 0.000E+00	 2.080E-01	-2.432E-01	 6.842E+00	 2.546E-01	 2.093E-01	 7.912E+00	 6.127E-01	 4.258E-01	-2.980E-08	 1.050E-01	 4.626E-01	 7.864E-01	-1.819E+00	 6.502E-01	 5.112E+00	-5.920E+00
    1.7821	 5.000E+00	 0.000E+00	 0.000E+00	 1.781E-01	-4.253E-01	 6.968E+00	 2.892E-01	 3.904E-01	 7.787E+00	 5.135E-01	 7.335E-01	 5.960E-08	 1.089E-01	 4.673E-01	 8.159E-01	-1.692E+00	 1.195E+00	 5.175E+00	-6.001E+00
    1.8345	 5.000E+00	 0.000E+00	 0.000E+00	 1.526E-01	-5.454E-01	 7.156E+00	 3.135E-01	 5.096E-01	 7.599E+00	 4.330E-01	 9.365E-01	 5.960E-08	 1.133E-01	 4.661E-01	 8.489E-01	-1.315E+00	 1.558E+00	 5.106E+00	-5.915E+00
    1.8869	 5.000E+00	 0.000E+00	 0.000E+00	 1.351E-01	-5.846E-01	 7.377E+00	 3.233E-01	 5.478E-01	 7.377E+00	 3.862E-01	 1.003E+00	 0.000E+00	 1.157E-01	 4.584E-01	 8.668E-01	-7.438E-01	 1.684E+00	 4.940E+00	-5.707E+00
    1.9393	 5.000E+00	 0.000E+00	 0.000E+00	 1.322E-01	-5.372E-01	 7.599E+00	 3.175E-01	 5.004E-01	 7.156E+00	 3.909E-01	 9.220E-01	 2.980E-08	 1.145E-01	 4.497E-01	 8.576E-01	-5.511E-02	 1.553E+00	 4.772E+00	-5.496E+00
    1.9918	 5.000E+00	 0.000E+00	 0.000E+00	 1.460E-01	-4.111E-01	 7.787E+00	 2.982E-01	 3.748E-01	 6.968E+00	 4.526E-01	 7.074E-01	 5.215E-08	 1.103E-01	 4.442E-01	 8.266E-01	 6.464E-01	 1.186E+00	 4.706E+00	-5.412E+00
    2.0442	 5.000E+00	 0.000E+00	 0.000E+00	 1.750E-01	-2.245E-01	 7.912E+00	 2.709E-01	 1.896E-01	 6.842E+00	 5.652E-01	 3.921E-01	-1.863E-08	 1.056E-01	 4.459E-01	 7.912E-01	 1.252E+00	 6.386E-01	 4.780E+00	-5.503E+00
    2.0966	 5.000E+00	 0.000E+00	 0.000E+00	 2.146E-01	-6.679E-03	 7.956E+00	 2.398E-01	-2.730E-02	 6.798E+00	 7.090E-01	 2.545E-02	 0.000E+00	 1.040E-01	 4.544E-01	 7.792E-01	 1.668E+00	-6.191E-03	 4.951E+00	-5.716E+00
    2.1490	 5.000E+00	 0.000E+00	 0.000E+00	 2.546E-01	 2.093E-01	 7.912E+00	 2.080E-01	-2.432E-01	 6.842E+00	 8.447E-01	-3.380E-01	 1.490E-08	 1.050E-01	 4.626E-01	 7.865E-01	 1.819E+00	-6.502E-01	 5.112E+00	-5.920E+00
    2.2014	 5.000E+00	 0.000E+00	 0.000E+00	 2.892E-01	 3.904E-01	 7.787E+00	 1.781E-01	-4.253E-01	 6.968E+00	 9.524E-01	-6.424E-01	 5.960E-08	 1.089E-01	 4.673E-01	 8.159E-01	 1.692E+00	-1.195E+00	 5.175E+00	-6.001E+00
    2.2538	 5.000E+00	 0.000E+00	 0.000E+00	 3.135E-01	 5.096E-01	 7.599E+00	 1.526E-01	-5.454E-01	 7.156E+00	 1.019E+00	-8.413E-01	 0.000E+00	 1.133E-01	 4.661E-01	 8.489E-01	 1.315E+00	-1.558E+00	 5.106E+00	-5.915E+00
    2.3062	 5.000E+00	 0.000E+00	 0.000E+00	 3.233E-01	 5.478E-01	 7.377E+00	 1.351E-01	-5.846E-01	 7.377E+00	 1.034E+00	-9.055E-01	 2.980E-08	 1.157E-01	 4.584E-01	 8.668E-01	 7.438E-01	-1.684E+00	 4.940E+00	-5.707E+00
    2.3587	 5.000E+00	 0.000E+00	 0.000E+00	 3.175E-01	 5.004E-01	 7.156E+00	 1.322E-01	-5.372E-01	 7.599E+00	 9.993E-01	-8.263E-01	 5.960E-08	 1.145E-01	 4.497E-01	 8.576E-01	 5.511E-02	-1.553E+00	 4.772E+00	-5.496E+00
    2.4111	 5.000E+00	 0.000E+00	 0.000E+00	 2.982E-01	 3.748E-01	 6.968E+00	 1.460E-01	-4.111E-01	 7.787E+00	 9.250E-01	-6.155E-01	-1.118E-07	 1.103E-01	 4.442E-01	 8.266E-01	-6.464E-01	-1.186E+00	 4.706E+00	-5.412E+00
    2.4635	 5.000E+00	 0.000E+00	 0.000E+00	 2.709E-01	 1.896E-01	 6.842E+00	 1.750E-01	-2.245E-01	 7.912E+00	 8.276E-01	-3.042E-01	 6.706E-08	 1.056E-01	 4.459E-01	 7.912E-01	-1.252E+00	-6.386E-01	 4.780E+00	-5.503E+00
    2.5159	 5.000E+00	 0.000E+00	 0.000E+00	 2.398E-01	-2.730E-02	 6.798E+00	 2.146E-01	-6.679E-03	 7.956E+00	 7.203E-01	 6.130E-02	 2.274E-13	 1.040E-01	 4.544E-01	 7.792E-01	-1.668E+00	 6.193E-03	 4.951E+00	-5.716E+00
    2.5683	 5.000E+00	 0.000E+00	 0.000E+00	 2.080E-01	-2.432E-01	 6.842E+00	 2.546E-01	 2.093E-01	 7.912E+00	 6.127E-01	 4.258E-01	 1.490E-08	 1.050E-01	 4.626E-01	 7.865E-01	-1.819E+00	 6.502E-01	 5.112E+00	-5.920E+00
    2.6207	 5.000E+00	 0.000E+00	 0.000E+00	 1.781E-01	-4.253E-01	 6.968E+00	 2.892E-01	 3.904E-01	 7.787E+00	 5.135E-01	 7.335E-01	-2.980E-08	 1.089E-01	 4.673E-01	 8.159E-01	-1.692E+00	 1.195E+00	 5.175E+00	-6.001E+00
    2.6731	 5.000E+00	 0.000E+00	 0.000E+00	 1.526E-01	-5.454E-01	 7.156E+00	 3.135E-01	 5.096E-01	 7.599E+00	 4.330E-01	 9.365E-01	 5.960E-08	 1.133E-01	 4.661E-01	 8.489E-01	-1.315E+00	 1.558E+00	 5.106E+00	-5.915E+00
    2.7256	 5.000E+00	 0.000E+00	 0.000E+00	 1.351E-01	-5.846E-01	 7.377E+00	 3.233E-01	 5.478E-01	 7.377E+00	 3.862E-01	 1.003E+00	 0.000E+00	 1.157E-01	 4.584E-01	 8.668E-01	-7.438E-01	 1.684E+00	 4.940E+00	-5.707E+00
    2.7780	 5.000E+00	 0.000E+00	 0.000E+00	 1.322E-01	-5.372E-01	 7.599E+00	 3.175E-01	 5.004E-01	 7.156E+00	 3.909E-01	 9.220E-01	 0.000E+00	 1.145E-01	 4.497E-01	 8.576E-01	-5.511E-02	 1.553E+00	 4.772E+00	-5.496E+00
    2.8304	 5.000E+00	 0.000E+00	 0.000E+00	 1.460E-01	-4.111E-01	 7.787E+00	 2.982E-01	 3.748E-01	 6.968E+00	 4.526E-01	 7.074E-01	 7.451E-09	 1.103E-01	 4.442E-01	 8.266E-01	 6.464E-01	 1.186E+00	 4.706E+00	-5.412E+00
    2.8828	 5.000E+00	 0.000E+00	 0.000E+00	 1.750E-01	-2.245E-01	 7.912E+00	 2.709E-01	 1.896E-01	 6.842E+00	 5.652E-01	 3.921E-01	-1.490E-08	 1.056E-01	 4.459E-01	 7.912E-01	 1.252E+00	 6.386E-01	 4.780E+00	-5.503E+00
    2.9352	 5.000E+00	 0.000E+00	 0.000E+00	 2.146E-01	-6.678E-03	 7.956E+00	 2.398E-01	-2.730E-02	 6.798E+00	 7.090E-01	 2.545E-02	-4.547E-13	 1.040E-01	 4.544E-01	 7.792E-01	 1.668E+00	-6.194E-03	 4.951E+00	-5.716E+00
    2.9876	 5.000E+00	 0.000E+00	 0.000E+00	 2.546E-01	 2.093E-01	 7.912E+00	 2.080E-01	-2.432E-01	 6.842E+00	 8.447E-01	-3.380E-01	-4.470E-08	 1.050E-01	 4.626E-01	 7.864E-01	 1.819E+00	-6.502E-01	 5.112E+00	-5.920E+00
    3.0400	 5.000E+00	 0.000E+00	 0.000E+00	 2.892E-01	 3.904E-01	 7.787E+00	 1.781E-01	-4.253E-01	 6.968E+00	 9.524E-01	-6.424E-01	 0.000E+00	 1.089E-01	 4.673E-01	 8.159E-01	 1.692E+00	-1.195E+00	 5.175E+00	-6.001E+00
    3.0925	 5.000E+00	 0.000E+00	 0.000E+00	 3.135E-01	 5.096E-01	 7.599E+00	 1.526E-01	-5.454E-01	 7.156E+00	 1.019E+00	-8.414E-01	 0.000E+00	 1.133E-01	 4.661E-01	 8.489E-01	 1.315E+00	-1.558E+00	 5.106E+00	-5.915E+00
    3.1449	 5.000E+00	 0.000E+00	 0.000E+00	 3.233E-01	 5.478E-01	 7.377E+00	 1.351E-01	-5.846E-01	 7.377E+00	 1.034E+00	-9.055E-01	-5.960E-08	 1.157E-01	 4.584E-01	 8.668E-01	 7.438E-01	-1.684E+00	 4.940E+00	-5.707E+00
    3.1973	 5.000E+00	 0.000E+00	 0.000E+00	 3.175E-01	 5.004E-01	 7.156E+00	 1.322E-01	-5.372E-01	 7.599E+00	 9.993E-01	-8.262E-01	 2.980E-08	 1.145E-01	 4.497E-01	 8.576E-01	 5.511E-02	-1.553E+00	 4.772E+00	-5.496E+00
    3.2497	 5.000E+00	 0.000E+00	 0.000E+00	 2.982E-01	 3.748E-01	 6.968E+00	 1.460E-01	-4.111E-01	 7.787E+00	 9.250E-01	-6.155E-01	-7.823E-08	 1.103E-01	 4.442E-01	 8.266E-01	-6.464E-01	-1.186E+00	 4.706E+00	-5.412E+00
    3.3021	 5.000E+00	 0.000E+00	 0.000E+00	 2.709E-01	 1.896E-01	 6.842E+00	 1.750E-01	-2.245E-01	 7.912E+00	 8.276E-01	-3.042E-01	-7.451E-09	 1.056E-01	 4.459E-01	 7.912E-01	-1.252E+00	-6.386E-01	 4.780E+00	-5.503E+00
    3.3545	 5.000E+00	 0.000E+00	 0.000E+00	 2.398E-01	-2.730E-02	 6.798E+00	 2.146E-01	-6.678E-03	 7.956E+00	 7.203E-01	 6.130E-02	 0.000E+00	 1.040E-01	 4.544E-01	 7.792E-01	-1.668E+00	 6.196E-03	 4.951E+00	-5.716E+00
    3.4069	 5.000E+00	 0.000E+00	 0.000E+00	 2.080E-01	-2.432E-01	 6.842E+00	 2.546E-01	 2.093E-01	 7.912E+00	 6.127E-01	 4.258E-01	-2.980E-08	 1.050E-01	 4.626E-01	 7.865E-01	-1.819E+00	 6.502E-01	 5.112E+00	-5.920E+00
    3.4594	 5.000E+00	 0.000E+00	 0.000E+00	 1.781E-01	-4.253E-01	 6.968E+00	 2.892E-01	 3.904E-01	 7.787E+00	 5.135E-01	 7.335E-01	 5.960E-08	 1.089E-01	 4.673E-01	 8.159E-01	-1.692E+00	 1.195E+00	 5.175E+00	-6.001E+00
    3.5118	 5.000E+00	 0.000E+00	 0.000E+00	 1.526E-01	-5.454E-01	 7.156E+00	 3.135E-01	 5.096E-01	 7.599E+00	 4.330E-01	 9.365E-01	 5.960E-08	 1.133E-01	 4.661E-01	 8.489E-01	-1.315E+00	 1.558E+00	 5.106E+00	-5.915E+00
    3.5642	 5.000E+00	 0.000E+00	 0.000E+00	 1.351E-01	-5.846E-01	 7.377E+00	 3.233E-01	 5.478E-01	 7.377E+00	 3.862E-01	 1.003E+00	 8.941E-08	 1.157E-01	 4.584E-01	 8.668E-01	-7.438E-01	 1.684E+00	 4.940E+00	-5.707E+00
    3.6166	 5.000E+00	 0.000E+00	 0.000E+00	 1.322E-01	-5.372E-01	 7.599E+00	 3.175E-01	 5.004E-01	 7.156E+00	 3.909E-01	 9.220E-01	-2.980E-08	 1.145E-01	 4.497E-01	 8.576E-01	-5.511E-02	 1.553E+00	 4.772E+00	-5.496E+00
    3.6690	 5.000E+00	 0.000E+00	 0.000E+00	 1.460E-01	-4.111E-01	 7.787E+00	 2.982E-01	 3.748E-01	 6.968E+00	 4.526E-01	 7.074E-01	 0.000E+00	 1.103E-01	 4.442E-01	 8.266E-01	 6.464E-01	 1.186E+00	 4.706E+00	-5.412E+00
    3.7214	 5.000E+00	 0.000E+00	 0.000E+00	 1.750E-01	-2.245E-01	 7.912E+00	 2.709E-01	 1.896E-01	 6.842E+00	 5.652E-01	 3.921E-01	 0.000E+00	 1.056E-01	 4.459E-01	 7.912E-01	 1.252E+00	 6.386E-01	 4.780E+00	-5.503E+00
    3.7738	 5.000E+00	 0.000E+00	 0.000E+00	 2.146E-01	-6.677E-03	 7.956E+00	 2.398E-01	-2.730E-02	 6.798E+00	 7.090E-01	 2.545E-02	-6.821E-13	 1.040E-01	 4.544E-01	 7.793E-01	 1.668E+00	-6.197E-03	 4.951E+00	-5.716E+00
    3.8263	 5.000E+00	 0.000E+00	 0.000E+00	 2.546E-01	 2.093E-01	 7.912E+00	 2.080E-01	-2.432E-01	 6.842E+00	 8.447E-01	-3.380E-01	-1.490E-08	 1.050E-01	 4.626E-01	 7.865E-01	 1.819E+00	-6.502E-01	 5.112E+00	-5.920E+00
    3.8787	 5.000E+00	 0.000E+00	 0.000E+00	 2.892E-01	 3.904E-01	 7.787E+00	 1.781E-01	-4.253E-01	 6.968E+00	 9.524E-01	-6.424E-01	 5.960E-08	 1.089E-01	 4.673E-01	 8.159E-01	 1.692E+00	-1.195E+00	 5.175E+00	-6.001E+00
    3.9311	 5.000E+00	 0.000E+00	 0.000E+00	 3.135E-01	 5.096E-01	 7.599E+00	 1.526E-01	-5.454E-01	 7.156E+00	 1.019E+00	-8.414E-01	 1.192E-07	 1.133E-01	 4.661E-01	 8.489E-01	 1.315E+00	-1.558E+00	 5.106E+00	-5.915E+00
    3.9835	 5.000E+00	 0.000E+00	 0.000E+00	 3.233E-01	 5.478E-01	 7.377E+00	 1.351E-01	-5.846E-01	 7.377E+00	 1.034E+00	-9.055E-01	 0.000E+00	 1.157E-01	 4.584E-01	 8.668E-01	 7.438E-01	-1.684E+00	 4.940E+00	-5.707E+00
    4.0359	 5.000E+00	 0.000E+00	 0.000E+00	 3.175E-01	 5.004E-01	 7.156E+00	 1.322E-01	-5.372E-01	 7.599E+00	 9.993E-01	-8.262E-01	-2.980E-08	 1.145E-01	 4.497E-01	 8.576E-01	 5.511E-02	-1.553E+00	 4.772E+00	-5.496E+00
    4.0883	 5.000E+00	 0.000E+00	 0.000E+00	 2.982E-01	 3.748E-01	 6.968E+00	 1.460E-01	-4.111E-01	 7.787E+00	 9.250E-01	-6.155E-01	 4.098E-08	 1.103E-01	 4.442E-01	 8.266E-01	-6.464E-01	-1.186E+00	 4.706E+00	-5.412E+00
    4.1408	 5.000E+00	 0.000E+00	 0.000E+00	 2.709E-01	 1.896E-01	 6.842E+00	 1.750E-01	-2.245E-01	 7.912E+00	 8.276E-01	-3.042E-01	 0.000E+00	 1.056E-01	 4.459E-01	 7.912E-01	-1.252E+00	-6.386E-01	 4.780E+00	-5.503E+00
    4.1932	 5.000E+00	 0.000E+00	 0.000E+00	 2.398E-01	-2.730E-02	 6.798E+00	 2.146E-01	-6.677E-03	 7.956E+00	 7.203E-01	 6.130E-02	-9.095E-13	 1.040E-01	 4.544E-01	 7.792E-01	-1.668E+00	 6.199E-03	 4.951E+00	-5.716E+00
    4.2456	 5.025E+00	 0.000E+00	 0.000E+00	 2.101E-01	-2.437E-01	 6.842E+00	 2.573E-01	 2.089E-01	 7.912E+00	 6.186E-01	 4.268E-01	-2.980E-08	 1.075E-01	 4.675E-01	 8.055E-01	-1.821E+00	 6.502E-01	 5.113E+00	-5.917E+00
    4.2980	 5.050E+00	 0.000E+00	 0.000E+00	 1.823E-01	-4.261E-01	 6.968E+00	 2.950E-01	 3.894E-01	 7.787E+00	 5.251E-01	 7.353E-01	-5.960E-08	 1.141E-01	 4.773E-01	 8.548E-01	-1.697E+00	 1.195E+00	 5.178E+00	-5.995E+00
    4.3504	 5.075E+00	 0.000E+00	 0.000E+00	 1.591E-01	-5.465E-01	 7.156E+00	 3.226E-01	 5.078E-01	 7.599E+00	 4.512E-01	 9.389E-01	 0.000E+00	 1.217E-01	 4.817E-01	 9.118E-01	-1.324E+00	 1.558E+00	 5.107E+00	-5.904E+00
    4.4028	 5.100E+00	 0.000E+00	 0.000E+00	 1.439E-01	-5.860E-01	 7.377E+00	 3.352E-01	 5.453E-01	 7.377E+00	 4.104E-01	 1.006E+00	 2.980E-08	 1.270E-01	 4.791E-01	 9.515E-01	-7.545E-01	 1.684E+00	 4.938E+00	-5.687E+00
    4.4552	 5.125E+00	 0.000E+00	 0.000E+00	 1.431E-01	-5.388E-01	 7.599E+00	 3.315E-01	 4.971E-01	 7.156E+00	 4.213E-01	 9.255E-01	-5.960E-08	 1.285E-01	 4.746E-01	 9.627E-01	-6.564E-02	 1.553E+00	 4.768E+00	-5.469E+00
    4.5077	 5.150E+00	 0.000E+00	 0.000E+00	 1.596E-01	-4.130E-01	 7.787E+00	 3.139E-01	 3.708E-01	 6.968E+00	 4.908E-01	 7.117E-01	 7.451E-08	 1.272E-01	 4.735E-01	 9.532E-01	 6.395E-01	 1.186E+00	 4.702E+00	-5.380E+00
    4.5601	 5.175E+00	 0.000E+00	 0.000E+00	 1.922E-01	-2.268E-01	 7.912E+00	 2.878E-01	 1.852E-01	 6.842E+00	 6.143E-01	 3.977E-01	 1.490E-08	 1.251E-01	 4.800E-01	 9.371E-01	 1.254E+00	 6.380E-01	 4.781E+00	-5.472E+00
    4.6125	 5.200E+00	 0.000E+00	 0.000E+00	 2.356E-01	-9.621E-03	 7.956E+00	 2.578E-01	-3.184E-02	 6.798E+00	 7.687E-01	 3.279E-02	-1.364E-12	 1.256E-01	 4.934E-01	 9.409E-01	 1.678E+00	-6.680E-03	 4.958E+00	-5.689E+00
    4.6649	 5.225E+00	 0.000E+00	 0.000E+00	 2.795E-01	 2.055E-01	 7.912E+00	 2.275E-01	-2.477E-01	 6.842E+00	 9.155E-01	-3.285E-01	-5.960E-08	 1.287E-01	 5.070E-01	 9.642E-01	 1.838E+00	-6.504E-01	 5.123E+00	-5.895E+00
    4.7173	 5.250E+00	 0.000E+00	 0.000E+00	 3.187E-01	 3.854E-01	 7.787E+00	 1.993E-01	-4.296E-01	 6.968E+00	 1.037E+00	-6.294E-01	 0.000E+00	 1.358E-01	 5.179E-01	 1.018E+00	 1.721E+00	-1.195E+00	 5.186E+00	-5.972E+00
    4.7697	 5.275E+00	 0.000E+00	 0.000E+00	 3.468E-01	 5.032E-01	 7.599E+00	 1.766E-01	-5.497E-01	 7.156E+00	 1.114E+00	-8.249E-01	-5.960E-08	 1.445E-01	 5.234E-01	 1.083E+00	 1.348E+00	-1.558E+00	 5.111E+00	-5.873E+00
    4.8221	 5.300E+00	 0.000E+00	 0.000E+00	 3.590E-01	 5.400E-01	 7.377E+00	 1.621E-01	-5.889E-01	 7.377E+00	 1.135E+00	-8.860E-01	 0.000E+00	 1.508E-01	 5.211E-01	 1.130E+00	 7.749E-01	-1.683E+00	 4.935E+00	-5.647E+00
    4.8746	 5.325E+00	 0.000E+00	 0.000E+00	 3.543E-01	 4.914E-01	 7.156E+00	 1.613E-01	-5.414E-01	 7.599E+00	 1.103E+00	-8.040E-01	-5.960E-08	 1.528E-01	 5.155E-01	 1.145E+00	 8.217E-02	-1.552E+00	 4.763E+00	-5.423E+00
    4.9270	 5.350E+00	 0.000E+00	 0.000E+00	 3.352E-01	 3.650E-01	 6.968E+00	 1.785E-01	-4.157E-01	 7.787E+00	 1.029E+00	-5.919E-01	-9.686E-08	 1.517E-01	 5.137E-01	 1.137E+00	-6.317E-01	-1.185E+00	 4.699E+00	-5.335E+00
    4.9794	 5.375E+00	 0.000E+00	 0.000E+00	 3.071E-01	 1.798E-01	 6.842E+00	 2.128E-01	-2.297E-01	 7.912E+00	 9.295E-01	-2.811E-01	-1.490E-08	 1.490E-01	 5.199E-01	 1.116E+00	-1.258E+00	-6.372E-01	 4.785E+00	-5.437E+00
    5.0318	 5.400E+00	 0.000E+00	 0.000E+00	 2.758E-01	-3.671E-02	 6.798E+00	 2.569E-01	-1.272E-02	 7.956E+00	 8.217E-01	 8.289E-02	-1.364E-12	 1.485E-01	 5.328E-01	 1.112E+00	-1.690E+00	 7.212E-03	 4.966E+00	-5.662E+00
    5.0842	 5.425E+00	 0.000E+00	 0.000E+00	 2.448E-01	-2.520E-01	 6.842E+00	 3.023E-01	 2.019E-01	 7.912E+00	 7.152E-01	 4.452E-01	 7.451E-08	 1.514E-01	 5.471E-01	 1.134E+00	-1.858E+00	 6.506E-01	 5.134E+00	-5.873E+00
    5.1366	 5.450E+00	 0.000E+00	 0.000E+00	 2.165E-01	-4.333E-01	 6.968E+00	 3.429E-01	 3.815E-01	 7.787E+00	 6.199E-01	 7.509E-01	-8.941E-08	 1.587E-01	 5.593E-01	 1.189E+00	-1.746E+00	 1.195E+00	 5.197E+00	-5.949E+00
    5.1890	 5.475E+00	 0.000E+00	 0.000E+00	 1.939E-01	-5.529E-01	 7.156E+00	 3.713E-01	 4.982E-01	 7.599E+00	 5.474E-01	 9.528E-01	 0.000E+00	 1.684E-01	 5.653E-01	 1.262E+00	-1.374E+00	 1.557E+00	 5.115E+00	-5.841E+00
    5.2415	 5.500E+00	 0.000E+00	 0.000E+00	 1.803E-01	-5.920E-01	 7.377E+00	 3.834E-01	 5.343E-01	 7.377E+00	 5.102E-01	 1.019E+00	 1.192E-07	 1.764E-01	 5.636E-01	 1.322E+00	-7.970E-01	 1.682E+00	 4.934E+00	-5.605E+00
    5.2939	 5.525E+00	 0.000E+00	 0.000E+00	 1.802E-01	-5.443E-01	 7.599E+00	 3.774E-01	 4.853E-01	 7.156E+00	 5.238E-01	 9.380E-01	 0.000E+00	 1.792E-01	 5.576E-01	 1.343E+00	-9.787E-02	 1.551E+00	 4.759E+00	-5.376E+00
    5.3463	 5.550E+00	 0.000E+00	 0.000E+00	 1.982E-01	-4.183E-01	 7.787E+00	 3.566E-01	 3.589E-01	 6.968E+00	 5.992E-01	 7.245E-01	-7.451E-09	 1.778E-01	 5.548E-01	 1.332E+00	 6.256E-01	 1.184E+00	 4.697E+00	-5.289E+00
    5.3987	 5.575E+00	 0.000E+00	 0.000E+00	 2.338E-01	-2.327E-01	 7.912E+00	 3.263E-01	 1.742E-01	 6.842E+00	 7.323E-01	 4.122E-01	 2.980E-08	 1.744E-01	 5.600E-01	 1.306E+00	 1.264E+00	 6.365E-01	 4.790E+00	-5.401E+00
    5.4511	 5.600E+00	 0.000E+00	 0.000E+00	 2.784E-01	-1.595E-02	 7.956E+00	 2.937E-01	-4.175E-02	 6.798E+00	 8.903E-01	 4.847E-02	 4.547E-13	 1.725E-01	 5.721E-01	 1.293E+00	 1.702E+00	-7.757E-03	 4.976E+00	-5.634E+00
    5.5035	 5.625E+00	 0.000E+00	 0.000E+00	 3.255E-01	 1.981E-01	 7.912E+00	 2.622E-01	-2.566E-01	 6.842E+00	 1.047E+00	-3.095E-01	-5.960E-08	 1.756E-01	 5.878E-01	 1.316E+00	 1.878E+00	-6.508E-01	 5.148E+00	-5.850E+00
    5.5559	 5.650E+00	 0.000E+00	 0.000E+00	 3.673E-01	 3.772E-01	 7.787E+00	 2.338E-01	-4.373E-01	 6.968E+00	 1.175E+00	-6.070E-01	-1.192E-07	 1.832E-01	 6.011E-01	 1.372E+00	 1.771E+00	-1.195E+00	 5.208E+00	-5.925E+00
    5.6084	 5.675E+00	 0.000E+00	 0.000E+00	 3.962E-01	 4.929E-01	 7.599E+00	 2.113E-01	-5.563E-01	 7.156E+00	 1.254E+00	-7.988E-01	 1.192E-07	 1.937E-01	 6.075E-01	 1.451E+00	 1.400E+00	-1.557E+00	 5.120E+00	-5.809E+00
    5.6608	 5.700E+00	 0.000E+00	 0.000E+00	 4.082E-01	 5.282E-01	 7.377E+00	 1.983E-01	-5.951E-01	 7.377E+00	 1.274E+00	-8.559E-01	 8.941E-08	 2.036E-01	 6.065E-01	 1.525E+00	 8.211E-01	-1.681E+00	 4.933E+00	-5.562E+00
    5.7132	 5.725E+00	 0.000E+00	 0.000E+00	 4.008E-01	 4.788E-01	 7.156E+00	 1.994E-01	-5.474E-01	 7.599E+00	 1.235E+00	-7.725E-01	 0.000E+00	 2.072E-01	 6.001E-01	 1.552E+00	 1.131E-01	-1.550E+00	 4.755E+00	-5.327E+00
    5.7656	 5.750E+00	 0.000E+00	 0.000E+00	 3.778E-01	 3.525E-01	 6.968E+00	 2.185E-01	-4.210E-01	 7.787E+00	 1.150E+00	-5.613E-01	-7.451E-08	 2.052E-01	 5.962E-01	 1.537E+00	-6.214E-01	-1.183E+00	 4.697E+00	-5.244E+00
    5.8180	 5.775E+00	 0.000E+00	 0.000E+00	 3.448E-01	 1.685E-01	 6.842E+00	 2.544E-01	-2.358E-01	 7.912E+00	 1.038E+00	-2.534E-01	 4.470E-08	 2.004E-01	 5.992E-01	 1.501E+00	-1.269E+00	-6.357E-01	 4.796E+00	-5.365E+00
    5.8704	 5.800E+00	 0.000E+00	 0.000E+00	 3.109E-01	-4.697E-02	 6.798E+00	 3.005E-01	-1.938E-02	 7.956E+00	 9.227E-01	 1.073E-01	 9.095E-13	 1.980E-01	 6.114E-01	 1.484E+00	-1.716E+00	 8.293E-03	 4.988E+00	-5.607E+00
    5.9228	 5.825E+00	 0.000E+00	 0.000E+00	 2.797E-01	-2.614E-01	 6.842E+00	 3.492E-01	 1.941E-01	 7.912E+00	 8.132E-01	 4.665E-01	 2.980E-08	 2.014E-01	 6.288E-01	 1.509E+00	-1.899E+00	 6.511E-01	 5.162E+00	-5.827E+00
    5.9753	 5.850E+00	 0.000E+00	 0.000E+00	 2.513E-01	-4.416E-01	 6.968E+00	 3.920E-01	 3.726E-01	 7.787E+00	 7.162E-01	 7.689E-01	 2.980E-08	 2.092E-01	 6.433E-01	 1.567E+00	-1.797E+00	 1.195E+00	 5.220E+00	-5.900E+00
    6.0277	 5.875E+00	 0.000E+00	 0.000E+00	 2.289E-01	-5.600E-01	 7.156E+00	 4.218E-01	 4.872E-01	 7.599E+00	 6.440E-01	 9.682E-01	-5.960E-08	 2.212E-01	 6.507E-01	 1.657E+00	-1.428E+00	 1.556E+00	 5.126E+00	-5.775E+00
    6.0801	 5.900E+00	 0.000E+00	 0.000E+00	 2.164E-01	-5.984E-01	 7.377E+00	 4.333E-01	 5.217E-01	 7.377E+00	 6.095E-01	 1.033E+00	 0.000E+00	 2.322E-01	 6.497E-01	 1.740E+00	-8.460E-01	 1.680E+00	 4.933E+00	-5.517E+00
    6.1325	 5.925E+00	 0.000E+00	 0.000E+00	 2.182E-01	-5.505E-01	 7.599E+00	 4.242E-01	 4.720E-01	 7.156E+00	 6.289E-01	 9.518E-01	 0.000E+00	 2.362E-01	 6.424E-01	 1.770E+00	-1.295E-01	 1.549E+00	 4.752E+00	-5.276E+00
    6.1849	 5.950E+00	 0.000E+00	 0.000E+00	 2.382E-01	-4.238E-01	 7.787E+00	 3.978E-01	 3.462E-01	 6.968E+00	 7.111E-01	 7.386E-01	-2.235E-08	 2.328E-01	 6.360E-01	 1.744E+00	 6.178E-01	 1.181E+00	 4.698E+00	-5.199E+00
    6.2373	 5.975E+00	 0.000E+00	 0.000E+00	 2.751E-01	-2.389E-01	 7.912E+00	 3.619E-01	 1.628E-01	 6.842E+00	 8.487E-01	 4.272E-01	 0.000E+00	 2.268E-01	 6.370E-01	 1.700E+00	 1.277E+00	 6.349E-01	 4.805E+00	-5.332E+00
    6.2897	 6.000E+00	 0.000E+00	 0.000E+00	 3.229E-01	-2.301E-02	 7.956E+00	 3.276E-01	-5.233E-02	 6.798E+00	 1.016E+00	 6.600E-02	-1.819E-12	 2.247E-01	 6.505E-01	 1.683E+00	 1.734E+00	-8.816E-03	 5.003E+00	-5.581E+00
    6.3422	 6.025E+00	 0.000E+00	 0.000E+00	 3.731E-01	 1.899E-01	 7.912E+00	 2.968E-01	-2.665E-01	 6.842E+00	 1.182E+00	-2.885E-01	-2.980E-08	 2.286E-01	 6.699E-01	 1.713E+00	 1.921E+00	-6.513E-01	 5.179E+00	-5.803E+00
    6.3946	 6.050E+00	 0.000E+00	 0.000E+00	 4.172E-01	 3.675E-01	 7.787E+00	 2.692E-01	-4.463E-01	 6.968E+00	 1.317E+00	-5.818E-01	 5.960E-08	 2.373E-01	 6.864E-01	 1.778E+00	 1.823E+00	-1.195E+00	 5.234E+00	-5.872E+00
    6.4470	 6.075E+00	 0.000E+00	 0.000E+00	 4.478E-01	 4.811E-01	 7.599E+00	 2.465E-01	-5.638E-01	 7.156E+00	 1.400E+00	-7.683E-01	 0.000E+00	 2.502E-01	 6.943E-01	 1.874E+00	 1.457E+00	-1.555E+00	 5.134E+00	-5.740E+00
    6.4994	 6.100E+00	 0.000E+00	 0.000E+00	 4.585E-01	 5.149E-01	 7.377E+00	 2.348E-01	-6.019E-01	 7.377E+00	 1.417E+00	-8.222E-01	 2.980E-08	 2.623E-01	 6.933E-01	 1.965E+00	 8.703E-01	-1.679E+00	 4.933E+00	-5.471E+00
    6.5518	 6.125E+00	 0.000E+00	 0.000E+00	 4.476E-01	 4.648E-01	 7.156E+00	 2.371E-01	-5.537E-01	 7.599E+00	 1.367E+00	-7.376E-01	-7.451E-08	 2.665E-01	 6.847E-01	 1.996E+00	 1.460E-01	-1.547E+00	 4.750E+00	-5.225E+00
    6.6042	 6.150E+00	 0.000E+00	 0.000E+00	 4.157E-01	 3.401E-01	 6.968E+00	 2.580E-01	-4.269E-01	 7.787E+00	 1.263E+00	-5.294E-01	 2.980E-08	 2.606E-01	 6.737E-01	 1.952E+00	-6.192E-01	-1.181E+00	 4.702E+00	-5.159E+00
    6.6566	 6.175E+00	 0.000E+00	 0.000E+00	 3.777E-01	 1.572E-01	 6.842E+00	 2.963E-01	-2.422E-01	 7.912E+00	 1.139E+00	-2.245E-01	 2.980E-08	 2.539E-01	 6.740E-01	 1.902E+00	-1.291E+00	-6.342E-01	 4.817E+00	-5.303E+00
    6.7091	 6.200E+00	 0.000E+00	 0.000E+00	 3.433E-01	-5.773E-02	 6.798E+00	 3.457E-01	-2.683E-02	 7.956E+00	 1.019E+00	 1.339E-01	 0.000E+00	 2.524E-01	 6.890E-01	 1.891E+00	-1.754E+00	 9.290E-03	 5.021E+00	-5.558E+00
    6.7615	 6.225E+00	 0.000E+00	 0.000E+00	 3.138E-01	-2.718E-01	 6.842E+00	 3.976E-01	 1.858E-01	 7.912E+00	 9.114E-01	 4.908E-01	-2.980E-08	 2.573E-01	 7.113E-01	 1.927E+00	-1.945E+00	 6.517E-01	 5.198E+00	-5.780E+00
    6.8139	 6.250E+00	 0.000E+00	 0.000E+00	 2.871E-01	-4.512E-01	 6.968E+00	 4.426E-01	 3.623E-01	 7.787E+00	 8.151E-01	 7.900E-01	 0.000E+00	 2.668E-01	 7.297E-01	 1.999E+00	-1.849E+00	 1.195E+00	 5.249E+00	-5.844E+00