
Predictions were generated on 14-Apr-2016 at 08:40:36 using AeroDyn_driver (v1.02.00a, 12-Apr-2016)
 AeroDyn (v15.02.04, 14-Apr-2016)

Case 1: WndSpeed=11 m/s; ShearExp=0 ; RotSpeed=64.14 rpm; Pitch=0 deg; Yaw=-15 deg; dT=5.00000E-02 s; Tmax=4 s

     Time           	RtSpeed   	RtSkew    	B1Azimuth 	B1N1Phi   	B1N2Phi   	B1N3Phi   	B1N4Phi   	B1N1VIndx 	B1N2VIndx 	B1N3VIndx 	B1N4VIndx 	B1N1VIndy 	B1N2VIndy 	B1N3VIndy 	B1N4VIndy 	B1N1AxInd 	B1N2AxInd 	B1N3AxInd 	B1N4AxInd 	B1N1TnInd 	B1N2TnInd 	B1N3TnInd 	B1N4TnInd 	B1N1Alpha 	B1N2Alpha 	B1N3Alpha 	B1N4Alpha 	B1N1Cl    	B1N2Cl    	B1N3Cl    	B1N4Cl    	B1N1Cd    	B1N2Cd    	B1N3Cd    	B1N4Cd    	B1N1Cm    	B1N2Cm    	B1N3Cm    	B1N4Cm    
      (s)           	(rpm)     	(deg)     	(deg)     	(deg)     	(deg)     	(deg)     	(deg)     	(m/s)     	(m/s)     	(m/s)     	(m/s)     	(m/s)     	(m/s)     	(m/s)     	(m/s)     	(-)       	(-)       	(-)       	(-)       	(-)       	(-)       	(-)       	(-)       	(deg)     	(deg)     	(deg)     	(deg)     	(-)       	(-)       	(-)       	(-)       	(-)       	(-)       	(-)       	(-)       	(-)       	(-)       	(-)       	(-)       
         0.0000	  6.414000E+001	  1.500000E+001	 -1.800000E+002	  3.451715E+001	  2.260036E+001	  1.663013E+001	  1.310299E+001	  0.000000E+000	  0.000000E+000	  0.000000E+000	  0.000000E+000	  0.000000E+000	  0.000000E+000	  0.000000E+000	  0.000000E+000	  0.000000E+000	  0.000000E+000	  0.000000E+000	  0.000000E+000	  0.000000E+000	  0.000000E+000	  0.000000E+000	  0.000000E+000	  2.991715E+001	  1.875035E+001	  1.418013E+001	  1.205299E+001	  9.007461E-001	  8.215440E-001	  1.140192E+000	  1.027303E+000	  3.671004E-001	  2.087731E-001	  9.975608E-002	  8.556831E-002	  0.000000E+000	  0.000000E+000	  0.000000E+000	  0.000000E+000
         0.0500	  6.414000E+001	  1.500000E+001	 -1.607580E+002	  3.088175E+001	  1.406678E+001	  1.197044E+001	  9.699357E+000	 -1.152438E+000	 -4.084438E+000	 -3.056466E+000	 -2.846083E+000	  6.997698E-001	  1.036917E+000	  6.673802E-001	  5.068402E-001	  1.080574E-001	  3.829740E-001	  2.865871E-001	  2.668606E-001	  4.601888E-002	  4.110501E-002	  1.894932E-002	  1.120358E-002	  2.628175E+001	  1.021678E+001	  9.520445E+000	  8.649358E+000	  8.683796E-001	  1.488441E+000	  1.199919E+000	  1.018658E+000	  3.076511E-001	  2.325389E-002	  2.063911E-002	  3.482549E-002	  0.000000E+000	  0.000000E+000	  0.000000E+000	  0.000000E+000
         0.1000	  6.414000E+001	  1.500000E+001	 -1.415159E+002	  3.201952E+001	  1.494154E+001	  1.257662E+001	  1.021507E+001	 -1.091144E+000	 -3.860230E+000	 -2.846916E+000	 -2.591383E+000	  7.023798E-001	  1.059778E+000	  6.741382E-001	  5.076562E-001	  1.014813E-001	  3.590187E-001	  2.647760E-001	  2.410103E-001	  4.762939E-002	  4.279048E-002	  1.939416E-002	  1.133674E-002	  2.741953E+001	  1.109154E+001	  1.012662E+001	  9.165067E+000	  9.411685E-001	  1.558528E+000	  1.247733E+000	  1.049833E+000	  3.468266E-001	  4.065105E-002	  2.991337E-002	  4.501829E-002	  0.000000E+000	  0.000000E+000	  0.000000E+000	  0.000000E+000
         0.1500	  6.414000E+001	  1.500000E+001	 -1.222740E+002	  3.368801E+001	  1.615058E+001	  1.327009E+001	  1.073444E+001	 -9.986230E-001	 -3.540897E+000	 -2.628554E+000	 -2.367760E+000	  6.927030E-001	  1.072601E+000	  6.758062E-001	  5.065199E-001	  9.230617E-002	  3.272972E-001	  2.429663E-001	  2.188602E-001	  4.934345E-002	  4.458343E-002	  1.984661E-002	  1.149317E-002	  2.908801E+001	  1.230058E+001	  1.082009E+001	  9.684440E+000	  1.040458E+000	  1.659079E+000	  1.270621E+000	  1.041745E+000	  4.081236E-001	  5.930704E-002	  3.750168E-002	  5.151895E-002	  0.000000E+000	  0.000000E+000	  0.000000E+000	  0.000000E+000
         0.2000	  6.414000E+001	  1.500000E+001	 -1.030320E+002	  3.581561E+001	  2.154930E+001	  1.400621E+001	  1.120993E+001	 -8.800337E-001	 -1.456535E+000	 -2.415186E+000	 -2.196879E+000	  6.651644E-001	  6.240833E-001	  6.690167E-001	  5.034600E-001	  8.105750E-002	  1.341575E-001	  2.224562E-001	  2.023485E-001	  5.054374E-002	  2.692327E-002	  2.016736E-002	  1.165602E-002	  3.121560E+001	  1.769930E+001	  1.155621E+001	  1.015993E+001	  1.142627E+000	  2.022173E+000	  1.282917E+000	  1.064244E+000	  5.019530E-001	  2.563075E-001	  4.633951E-002	  6.072590E-002	  0.000000E+000	  0.000000E+000	  0.000000E+000	  0.000000E+000
         0.2500	  6.414000E+001	  1.500000E+001	 -8.378998E+001	  3.822857E+001	  2.316562E+001	  1.472435E+001	  1.160009E+001	 -7.538392E-001	 -1.126147E+000	 -2.223026E+000	 -2.089078E+000	  6.228420E-001	  5.249651E-001	  6.527489E-001	  4.988278E-001	  6.939624E-002	  1.036698E-001	  2.046452E-001	  1.923144E-001	  5.100990E-002	  2.361505E-002	  2.025706E-002	  1.180848E-002	  3.362857E+001	  1.931562E+001	  1.227435E+001	  1.055009E+001	  1.227125E+000	  1.649982E+000	  1.330461E+000	  1.044714E+000	  6.308501E-001	  2.432443E-001	  6.189746E-002	  6.492937E-002	  0.000000E+000	  0.000000E+000	  0.000000E+000	  0.000000E+000
         0.3000	  6.414000E+001	  1.500000E+001	 -6.454797E+001	  4.064109E+001	  2.431012E+001	  1.534249E+001	  1.186892E+001	 -6.447635E-001	 -9.890358E-001	 -2.073008E+000	 -2.046338E+000	  5.780436E-001	  4.830821E-001	  6.301387E-001	  4.932504E-001	  5.950370E-002	  9.127578E-002	  1.913130E-001	  1.888517E-001	  5.117845E-002	  2.266442E-002	  2.012725E-002	  1.193512E-002	  3.604109E+001	  2.046012E+001	  1.289249E+001	  1.081892E+001	  1.164130E+000	  1.259566E+000	  1.285597E+000	  1.054328E+000	  6.825398E-001	  2.357672E-001	  7.335159E-002	  6.939845E-002	  0.000000E+000	  0.000000E+000	  0.000000E+000	  0.000000E+000
         0.3500	  6.414000E+001	  1.500000E+001	 -4.530596E+001	  4.271312E+001	  2.512823E+001	  1.577084E+001	  1.198671E+001	 -5.687363E-001	 -9.292309E-001	 -1.984895E+000	 -2.065938E+000	  5.433378E-001	  4.633352E-001	  6.076326E-001	  4.875173E-001	  5.276566E-002	  8.621129E-002	  1.841526E-001	  1.916716E-001	  5.166859E-002	  2.256240E-002	  1.990352E-002	  1.202298E-002	  3.811312E+001	  2.127823E+001	  1.332084E+001	  1.093671E+001	  1.097320E+000	  1.045185E+000	  1.241629E+000	  1.037071E+000	  6.912155E-001	  2.571517E-001	  7.818803E-002	  6.980535E-002	  0.000000E+000	  0.000000E+000	  0.000000E+000	  0.000000E+000
         0.4000	  6.414000E+001	  1.500000E+001	 -2.606400E+001	  4.414043E+001	  2.558827E+001	  1.592883E+001	  1.193365E+001	 -5.257956E-001	 -9.124585E-001	 -1.974287E+000	 -2.143250E+000	  5.211092E-001	  4.535752E-001	  5.917323E-001	  4.824252E-001	  4.915019E-002	  8.529456E-002	  1.845519E-001	  2.003461E-001	  5.231648E-002	  2.270077E-002	  1.974166E-002	  1.206253E-002	  3.954043E+001	  2.173827E+001	  1.347883E+001	  1.088365E+001	  1.100676E+000	  1.069037E+000	  1.211549E+000	  1.030151E+000	  7.523873E-001	  2.796424E-001	  8.136840E-002	  6.745718E-002	  0.000000E+000	  0.000000E+000	  0.000000E+000	  0.000000E+000
         0.4500	  6.414000E+001	  1.500000E+001	 -6.821989E+000	  4.468416E+001	  2.564266E+001	  1.576465E+001	  1.170525E+001	 -5.127966E-001	 -9.249660E-001	 -2.051070E+000	 -2.272858E+000	  5.100506E-001	  4.484498E-001	  5.864144E-001	  4.786248E-001	  4.836642E-002	  8.724179E-002	  1.934547E-001	  2.143735E-001	  5.262956E-002	  2.275098E-002	  1.974167E-002	  1.204867E-002	  4.008416E+001	  2.179266E+001	  1.331465E+001	  1.065525E+001	  1.095626E+000	  1.007187E+000	  1.198501E+000	  1.022694E+000	  7.832383E-001	  2.989522E-001	  7.898164E-002	  6.327888E-002	  0.000000E+000	  0.000000E+000	  0.000000E+000	  0.000000E+000
         0.5000	  6.414000E+001	  1.500000E+001	  1.242002E+001	  4.422241E+001	  2.527206E+001	  1.527347E+001	  1.131755E+001	 -5.294936E-001	 -9.641944E-001	 -2.217153E+000	 -2.447945E+000	  5.101256E-001	  4.472322E-001	  5.921810E-001	  4.765108E-001	  5.041369E-002	  9.180205E-002	  2.110977E-001	  2.330717E-001	  5.238610E-002	  2.263584E-002	  1.990466E-002	  1.198143E-002	  3.962241E+001	  2.142206E+001	  1.282346E+001	  1.026755E+001	  1.083654E+000	  9.125832E-001	  1.175758E+000	  1.017190E+000	  7.908900E-001	  2.941763E-001	  6.785648E-002	  5.708262E-002	  0.000000E+000	  0.000000E+000	  0.000000E+000	  0.000000E+000
         0.5500	  6.414000E+001	  1.500000E+001	  3.166202E+001	  4.280334E+001	  2.449704E+001	  1.450244E+001	  1.080920E+001	 -5.779431E-001	 -1.038469E+000	 -2.466135E+000	 -2.658371E+000	  5.223182E-001	  4.536212E-001	  6.062292E-001	  4.761854E-001	  5.551397E-002	  9.974951E-002	  2.368830E-001	  2.553481E-001	  5.174067E-002	  2.255158E-002	  2.013516E-002	  1.186669E-002	  3.820334E+001	  2.064704E+001	  1.205244E+001	  9.759197E+000	  1.047678E+000	  7.540677E-001	  1.175058E+000	  1.011926E+000	  7.038009E-001	  2.387998E-001	  5.214463E-002	  4.934718E-002	  0.000000E+000	  0.000000E+000	  0.000000E+000	  0.000000E+000
         0.6000	  6.414000E+001	  1.500000E+001	  5.090400E+001	  4.063503E+001	  2.335174E+001	  1.356967E+001	  1.023849E+001	 -6.629784E-001	 -1.174606E+000	 -2.767156E+000	 -2.888381E+000	  5.489720E-001	  4.770891E-001	  6.226808E-001	  4.775022E-001	  6.414253E-002	  1.136421E-001	  2.677197E-001	  2.794481E-001	  5.119669E-002	  2.300034E-002	  2.025909E-002	  1.171619E-002	  3.603503E+001	  1.950174E+001	  1.111967E+001	  9.188491E+000	  1.009995E+000	  7.176971E-001	  1.180467E+000	  1.007211E+000	  6.275376E-001	  2.106098E-001	  3.485504E-002	  4.108413E-002	  0.000000E+000	  0.000000E+000	  0.000000E+000	  0.000000E+000
         0.6500	  6.414000E+001	  1.500000E+001	  7.014600E+001	  3.804682E+001	  2.178399E+001	  1.263922E+001	  9.675856E+000	 -7.858659E-001	 -1.450541E+000	 -3.066398E+000	 -3.115115E+000	  5.892592E-001	  5.396455E-001	  6.355540E-001	  4.801627E-001	  7.639354E-002	  1.410062E-001	  2.980827E-001	  3.028184E-001	  5.101251E-002	  2.501698E-002	  2.013519E-002	  1.154675E-002	  3.344682E+001	  1.793399E+001	  1.018922E+001	  8.625855E+000	  9.619326E-001	  7.140398E-001	  1.182183E+000	  1.003420E+000	  5.343139E-001	  1.826273E-001	  2.082866E-002	  3.336945E-002	  0.000000E+000	  0.000000E+000	  0.000000E+000	  0.000000E+000
         0.7000	  6.414000E+001	  1.500000E+001	  8.938800E+001	  3.545856E+001	  1.550850E+001	  1.186313E+001	  9.193350E+000	 -9.263732E-001	 -3.748420E+000	 -3.307299E+000	 -3.309304E+000	  6.307233E-001	  9.926927E-001	  6.423819E-001	  4.838172E-001	  9.020712E-002	  3.650086E-001	  3.220538E-001	  3.222490E-001	  5.050726E-002	  4.410464E-002	  1.976508E-002	  1.137838E-002	  3.085856E+001	  1.165850E+001	  9.413127E+000	  8.143350E+000	  9.092118E-001	  7.413286E-001	  1.173135E+000	  1.001114E+000	  4.401362E-001	  4.049253E-002	  1.316638E-002	  2.714078E-002	  0.000000E+000	  0.000000E+000	  0.000000E+000	  0.000000E+000
         0.7500	  6.414000E+001	  1.500000E+001	  1.086300E+002	  3.324187E+001	  1.374936E+001	  1.132872E+001	  8.853527E+000	 -1.051225E+000	 -4.298580E+000	 -3.456273E+000	 -3.439299E+000	  6.604893E-001	  1.017988E+000	  6.446458E-001	  4.881311E-001	  1.022098E-001	  4.179474E-001	  3.360506E-001	  3.344002E-001	  4.918864E-002	  4.341548E-002	  1.927725E-002	  1.123157E-002	  2.864188E+001	  9.899364E+000	  8.878719E+000	  7.803527E+000	  8.618035E-001	  1.101467E+000	  1.155263E+000	  1.001001E+000	  3.604597E-001	 -2.400398E-003	  1.160142E-002	  2.305779E-002	  0.000000E+000	  0.000000E+000	  0.000000E+000	  0.000000E+000
         0.8000	  6.414000E+001	  1.500000E+001	  1.278720E+002	  3.160659E+001	  1.314880E+001	  1.106276E+001	  8.699262E+000	 -1.137436E+000	 -4.423295E+000	 -3.503624E+000	 -3.478556E+000	  6.758402E-001	  1.007939E+000	  6.459452E-001	  4.927937E-001	  1.100879E-001	  4.281135E-001	  3.391021E-001	  3.366759E-001	  4.737432E-002	  4.150314E-002	  1.884374E-002	  1.112428E-002	  2.700659E+001	  9.298803E+000	  8.612761E+000	  7.649261E+000	  8.343522E-001	  1.322652E+000	  1.138926E+000	  1.003639E+000	  3.081552E-001	 -4.599124E-003	  1.376168E-002	  2.145889E-002	  0.000000E+000	  0.000000E+000	  0.000000E+000	  0.000000E+000
         0.8500	  6.414000E+001	  1.500000E+001	  1.471140E+002	  3.060546E+001	  1.295186E+001	  1.104291E+001	  8.746277E+000	 -1.182458E+000	 -4.441159E+000	 -3.463511E+000	 -3.414619E+000	  6.827749E-001	  1.004467E+000	  6.485950E-001	  4.974767E-001	  1.136389E-001	  4.268131E-001	  3.328573E-001	  3.281586E-001	  4.579625E-002	  4.029331E-002	  1.857265E-002	  1.106932E-002	  2.600546E+001	  9.101860E+000	  8.592912E+000	  7.696277E+000	  8.348162E-001	  1.390901E+000	  1.134940E+000	  1.009009E+000	  2.869188E-001	  3.278315E-003	  1.699682E-002	  2.239525E-002	  0.000000E+000	  0.000000E+000	  0.000000E+000	  0.000000E+000
         0.9000	  6.414000E+001	  1.500000E+001	  1.663560E+002	  3.021351E+001	  1.310510E+001	  1.123799E+001	  8.980944E+000	 -1.194988E+000	 -4.370691E+000	 -3.353353E+000	 -3.255289E+000	  6.885587E-001	  1.009938E+000	  6.538941E-001	  5.017790E-001	  1.138433E-001	  4.163840E-001	  3.194650E-001	  3.101227E-001	  4.504843E-002	  3.991101E-002	  1.852500E-002	  1.107244E-002	  2.561351E+001	  9.255095E+000	  8.787985E+000	  7.930943E+000	  8.482813E-001	  1.416172E+000	  1.147696E+000	  1.016303E+000	  2.862075E-001	  1.407197E-002	  2.014282E-002	  2.568510E-002	  0.000000E+000	  0.000000E+000	  0.000000E+000	  0.000000E+000
         0.9500	  6.414000E+001	  1.500000E+001	 -1.744020E+002	  3.040543E+001	  1.357577E+001	  1.161338E+001	  9.365004E+000	 -1.179363E+000	 -4.222276E+000	 -3.192124E+000	 -3.027798E+000	  6.951850E-001	  1.023173E+000	  6.615070E-001	  5.052134E-001	  1.113025E-001	  3.984780E-001	  3.012573E-001	  2.857489E-001	  4.528416E-002	  4.032762E-002	  1.870530E-002	  1.113183E-002	  2.580543E+001	  9.725771E+000	  9.163381E+000	  8.315002E+000	  8.671637E-001	  1.450288E+000	  1.175569E+000	  1.038740E+000	  2.987450E-001	  2.490664E-002	  2.308114E-002	  3.264311E-002	  0.000000E+000	  0.000000E+000	  0.000000E+000	  0.000000E+000
         1.0000	  6.414000E+001	  1.500000E+001	 -1.551600E+002	  3.115674E+001	  1.429898E+001	  1.213558E+001	  9.845962E+000	 -1.137610E+000	 -4.023124E+000	 -2.997208E+000	 -2.770532E+000	  7.012727E-001	  1.043255E+000	  6.696483E-001	  5.072683E-001	  1.063983E-001	  3.762744E-001	  2.803227E-001	  2.591222E-001	  4.643637E-002	  4.152806E-002	  1.907022E-002	  1.123897E-002	  2.655674E+001	  1.044898E+001	  9.685583E+000	  8.795960E+000	  8.924451E-001	  1.503931E+000	  1.221373E+000	  1.034162E+000	  3.219370E-001	  3.509933E-002	  2.723640E-002	  3.853336E-002	  0.000000E+000	  0.000000E+000	  0.000000E+000	  0.000000E+000
         1.0500	  6.414000E+001	  1.500000E+001	 -1.359180E+002	  3.245184E+001	  1.524086E+001	  1.277112E+001	  1.036802E+001	 -1.067477E+000	 -3.785608E+000	 -2.783703E+000	 -2.521926E+000	  7.011852E-001	  1.066076E+000	  6.753179E-001	  5.075319E-001	  9.907892E-002	  3.513648E-001	  2.583721E-001	  2.340750E-001	  4.814735E-002	  4.336601E-002	  1.953118E-002	  1.138059E-002	  2.785184E+001	  1.139086E+001	  1.032112E+001	  9.318025E+000	  9.252451E-001	  1.574514E+000	  1.250857E+000	  1.060567E+000	  3.555558E-001	  4.561776E-002	  3.241566E-002	  4.821865E-002	  0.000000E+000	  0.000000E+000	  0.000000E+000	  0.000000E+000
         1.1000	  6.414000E+001	  1.500000E+001	 -1.166759E+002	  3.426513E+001	  1.677812E+001	  1.348218E+001	  1.087924E+001	 -9.662173E-001	 -3.333212E+000	 -2.565311E+000	 -2.311951E+000	  6.866043E-001	  1.058245E+000	  6.748144E-001	  5.058184E-001	  8.919290E-002	  3.076935E-001	  2.368075E-001	  2.134195E-001	  4.976716E-002	  4.443379E-002	  1.995937E-002	  1.154064E-002	  2.966513E+001	  1.292812E+001	  1.103218E+001	  9.829246E+000	  1.046674E+000	  1.703300E+000	  1.273849E+000	  1.044476E+000	  4.095778E-001	  6.874943E-002	  3.938350E-002	  5.417044E-002	  0.000000E+000	  0.000000E+000	  0.000000E+000	  0.000000E+000
         1.1500	  6.414000E+001	  1.500000E+001	 -9.743396E+001	  3.649896E+001	  2.210189E+001	  1.422016E+001	  1.133393E+001	 -8.430054E-001	 -1.322624E+000	 -2.356298E+000	 -2.158797E+000	  6.539622E-001	  5.841578E-001	  6.652082E-001	  5.022513E-001	  7.761001E-002	  1.217654E-001	  2.169290E-001	  1.987464E-001	  5.074769E-002	  2.550190E-002	  2.021933E-002	  1.170217E-002	  3.189896E+001	  1.825189E+001	  1.177016E+001	  1.028394E+001	  1.164810E+000	  2.055507E+000	  1.326704E+000	  1.064591E+000	  4.988737E-001	  2.516464E-001	  5.303264E-002	  6.259383E-002	  0.000000E+000	  0.000000E+000	  0.000000E+000	  0.000000E+000
         1.2000	  6.414000E+001	  1.500000E+001	 -7.819196E+001	  3.894531E+001	  2.353342E+001	  1.491967E+001	  1.169228E+001	 -7.193542E-001	 -1.074710E+000	 -2.173369E+000	 -2.069994E+000	  6.093980E-001	  5.093277E-001	  6.465638E-001	  4.972695E-001	  6.624940E-002	  9.897609E-002	  2.001579E-001	  1.906375E-001	  5.105722E-002	  2.319819E-002	  2.023759E-002	  1.184862E-002	  3.434531E+001	  1.968342E+001	  1.246967E+001	  1.064228E+001	  1.257803E+000	  1.984526E+000	  1.296053E+000	  1.044294E+000	  6.214207E-001	  3.629416E-001	  6.472236E-002	  6.630693E-002	  0.000000E+000	  0.000000E+000	  0.000000E+000	  0.000000E+000
         1.2500	  6.414000E+001	  1.500000E+001	 -5.894997E+001	  4.129388E+001	  2.458176E+001	  1.549067E+001	  1.191987E+001	 -6.189557E-001	 -9.659638E-001	 -2.040163E+000	 -2.045796E+000	  5.665675E-001	  4.757780E-001	  6.232619E-001	  4.915620E-001	  5.719456E-002	  8.925983E-002	  1.885211E-001	  1.890417E-001	  5.127430E-002	  2.258121E-002	  2.006457E-002	  1.196518E-002	  3.669388E+001	  2.073176E+001	  1.304067E+001	  1.086987E+001	  1.306253E+000	  1.473638E+000	  1.261043E+000	  1.051605E+000	  7.633274E-001	  3.667449E-001	  7.223606E-002	  6.983894E-002	  0.000000E+000	  0.000000E+000	  0.000000E+000	  0.000000E+000
         1.3000	  6.414000E+001	  1.500000E+001	 -3.970797E+001	  4.320687E+001	  2.530132E+001	  1.584762E+001	  1.198944E+001	 -5.530326E-001	 -9.207819E-001	 -1.973298E+000	 -2.082704E+000	  5.356671E-001	  4.598017E-001	  6.020897E-001	  4.859368E-001	  5.141092E-002	  8.559757E-002	  1.834414E-001	  1.936120E-001	  5.186577E-002	  2.259707E-002	  1.984408E-002	  1.203978E-002	  3.860688E+001	  2.145132E+001	  1.339762E+001	  1.093944E+001	  1.227163E+000	  1.068847E+000	  1.278200E+000	  1.035359E+000	  8.188025E-001	  2.954892E-001	  8.353734E-002	  6.959671E-002	  0.000000E+000	  0.000000E+000	  0.000000E+000	  0.000000E+000
         1.3500	  6.414000E+001	  1.500000E+001	 -2.046598E+001	  4.439803E+001	  2.564756E+001	  1.591575E+001	  1.188500E+001	 -5.189837E-001	 -9.133741E-001	 -1.987228E+000	 -2.175825E+000	  5.167624E-001	  4.517190E-001	  5.889956E-001	  4.811631E-001	  4.863481E-002	  8.559379E-002	  1.862265E-001	  2.039002E-001	  5.245851E-002	  2.273283E-002	  1.972263E-002	  1.206411E-002	  3.979803E+001	  2.179756E+001	  1.346575E+001	  1.083500E+001	  1.178226E+000	  9.072605E-001	  1.250176E+000	  1.026551E+000	  8.562992E-001	  2.785817E-001	  9.166592E-002	  6.631091E-002	  0.000000E+000	  0.000000E+000	  0.000000E+000	  0.000000E+000
         1.4000	  6.414000E+001	  1.500000E+001	 -1.223983E+000	  4.465483E+001	  2.557846E+001	  1.565536E+001	  1.160760E+001	 -5.145425E-001	 -9.334884E-001	 -2.089737E+000	 -2.319472E+000	  5.089000E-001	  4.476169E-001	  5.869797E-001	  4.778259E-001	  4.866416E-002	  8.828703E-002	  1.976422E-001	  2.193699E-001	  5.261676E-002	  2.273123E-002	  1.977369E-002	  1.203447E-002	  4.005484E+001	  2.172846E+001	  1.320536E+001	  1.055760E+001	  1.138778E+000	  8.547626E-001	  1.204644E+000	  1.021088E+000	  8.584114E-001	  3.024264E-001	  8.366354E-002	  6.168589E-002	  0.000000E+000	  0.000000E+000	  0.000000E+000	  0.000000E+000
         1.4500	  6.414000E+001	  1.500000E+001	  1.801804E+001	  4.390168E+001	  2.508661E+001	  1.507399E+001	  1.117984E+001	 -5.401605E-001	 -9.814644E-001	 -2.281928E+000	 -2.506092E+000	  5.123494E-001	  4.480168E-001	  5.956346E-001	  4.762343E-001	  5.156699E-002	  9.369653E-002	  2.178467E-001	  2.392467E-001	  5.222303E-002	  2.259209E-002	  1.997174E-002	  1.195254E-002	  3.930168E+001	  2.123661E+001	  1.262399E+001	  1.012984E+001	  1.101588E+000	  7.866359E-001	  1.174462E+000	  1.015620E+000	  8.224833E-001	  2.484165E-001	  6.371051E-002	  5.494949E-002	  0.000000E+000	  0.000000E+000	  0.000000E+000	  0.000000E+000
         1.5000	  6.414000E+001	  1.500000E+001	  3.726006E+001	  4.223745E+001	  2.420093E+001	  1.424096E+001	  1.064662E+001	 -5.986112E-001	 -1.069863E+000	 -2.550384E+000	 -2.724141E+000	  5.284386E-001	  4.580727E-001	  6.110667E-001	  4.764103E-001	  5.763189E-002	  1.030021E-001	  2.455408E-001	  2.622694E-001	  5.154360E-002	  2.259615E-002	  2.019032E-002	  1.182593E-002	  3.763745E+001	  2.035093E+001	  1.179096E+001	  9.596616E+000	  1.044037E+000	  7.335675E-001	  1.176399E+000	  1.010483E+000	  7.016922E-001	  2.269447E-001	  4.706094E-002	  4.694927E-002	  0.000000E+000	  0.000000E+000	  0.000000E+000	  0.000000E+000
         1.5500	  6.414000E+001	  1.500000E+001	  5.650209E+001	  3.990746E+001	  2.294804E+001	  1.328941E+001	  1.007071E+001	 -6.952819E-001	 -1.234068E+000	 -2.858137E+000	 -2.955880E+000	  5.596685E-001	  4.896042E-001	  6.269851E-001	  4.781530E-001	  6.738003E-002	  1.195940E-001	  2.769831E-001	  2.864554E-001	  5.112575E-002	  2.335140E-002	  2.025148E-002	  1.166800E-002	  3.530746E+001	  1.909804E+001	  1.083941E+001	  9.020709E+000	  9.973286E-001	  7.145102E-001	  1.181723E+000	  1.005992E+000	  6.019858E-001	  2.033696E-001	  3.020862E-002	  3.873737E-002	  0.000000E+000	  0.000000E+000	  0.000000E+000	  0.000000E+000
         1.6000	  6.414000E+001	  1.500000E+001	  7.574400E+001	  3.727509E+001	  2.118677E+001	  1.239215E+001	  9.524165E+000	 -8.263401E-001	 -1.591900E+000	 -3.144590E+000	 -3.176380E+000	  6.018987E-001	  5.738653E-001	  6.381550E-001	  4.811389E-001	  8.039463E-002	  1.548760E-001	  3.059372E-001	  3.090300E-001	  5.093458E-002	  2.627950E-002	  2.004875E-002	  1.149673E-002	  3.267509E+001	  1.733677E+001	  9.942148E+000	  8.474166E+000	  9.470487E-001	  7.187364E-001	  1.180807E+000	  1.002566E+000	  5.066617E-001	  1.715356E-001	  1.789922E-002	  3.136878E-002	  0.000000E+000	  0.000000E+000	  0.000000E+000	  0.000000E+000
         1.6500	  6.414000E+001	  1.500000E+001	  9.498603E+001	  3.476283E+001	  1.464843E+001	  1.168095E+001	  9.077415E+000	 -9.655908E-001	 -4.048974E+000	 -3.360716E+000	 -3.355097E+000	  6.409485E-001	  1.016830E+000	  6.433951E-001	  4.850183E-001	  9.401584E-002	  3.942330E-001	  3.272200E-001	  3.266728E-001	  5.020894E-002	  4.462616E-002	  1.962845E-002	  1.133258E-002	  3.016283E+001	  1.079843E+001	  9.230950E+000	  8.027416E+000	  8.945942E-001	  7.852753E-001	  1.168533E+000	  1.000824E+000	  4.150902E-001	  1.742914E-002	  1.217248E-002	  2.571061E-002	  0.000000E+000	  0.000000E+000	  0.000000E+000	  0.000000E+000
         1.7000	  6.414000E+001	  1.500000E+001	  1.142280E+002	  3.270137E+001	  1.352394E+001	  1.122588E+001	  8.788250E+000	 -1.080785E+000	 -4.349601E+000	 -3.479040E+000	 -3.460973E+000	  6.662801E-001	  1.014945E+000	  6.451329E-001	  4.894652E-001	  1.049755E-001	  4.224719E-001	  3.379153E-001	  3.361605E-001	  4.868152E-002	  4.281311E-002	  1.914365E-002	  1.119559E-002	  2.810137E+001	  9.673936E+000	  8.775876E+000	  7.738250E+000	  8.511713E-001	  1.157706E+000	  1.149943E+000	  1.001471E+000	  3.421021E-001	 -4.579753E-003	  1.199308E-002	  2.232918E-002	  0.000000E+000	  0.000000E+000	  0.000000E+000	  0.000000E+000
         1.7500	  6.414000E+001	  1.500000E+001	  1.334700E+002	  3.125048E+001	  1.305464E+001	  1.103278E+001	  8.692241E+000	 -1.154427E+000	 -4.437588E+000	 -3.500313E+000	 -3.470664E+000	  6.783456E-001	  1.006079E+000	  6.464829E-001	  4.941701E-001	  1.115280E-001	  4.287108E-001	  3.381617E-001	  3.352973E-001	  4.685724E-002	  4.106989E-002	  1.874411E-002	  1.110249E-002	  2.665048E+001	  9.204642E+000	  8.582779E+000	  7.642241E+000	  8.321155E-001	  1.345792E+000	  1.136147E+000	  1.004940E+000	  2.991815E-001	 -3.188550E-003	  1.465707E-002	  2.147391E-002	  0.000000E+000	  0.000000E+000	  0.000000E+000	  0.000000E+000
         1.8000	  6.414000E+001	  1.500000E+001	  1.527120E+002	  3.042985E+001	  1.296122E+001	  1.107904E+001	  8.796505E+000	 -1.189167E+000	 -4.429597E+000	 -3.437833E+000	 -3.377215E+000	  6.843934E-001	  1.005190E+000	  6.498485E-001	  4.987879E-001	  1.140082E-001	  4.246757E-001	  3.295930E-001	  3.237813E-001	  4.547960E-002	  4.009813E-002	  1.853457E-002	  1.106418E-002	  2.582985E+001	  9.111216E+000	  8.629038E+000	  7.746505E+000	  8.380566E-001	  1.397717E+000	  1.136912E+000	  1.010987E+000	  2.850842E-001	  5.951554E-003	  1.794012E-002	  2.312307E-002	  0.000000E+000	  0.000000E+000	  0.000000E+000	  0.000000E+000
         1.8500	  6.414000E+001	  1.500000E+001	  1.719541E+002	  3.021018E+001	  1.321179E+001	  1.133012E+001	  9.079430E+000	 -1.193235E+000	 -4.334551E+000	 -3.310896E+000	 -3.194547E+000	  6.904124E-001	  1.013031E+000	  6.559252E-001	  5.028909E-001	  1.133680E-001	  4.118212E-001	  3.145647E-001	  3.035105E-001	  4.501564E-002	  3.995064E-002	  1.855504E-002	  1.108418E-002	  2.561018E+001	  9.361785E+000	  8.880119E+000	  8.029430E+000	  8.532405E-001	  1.424330E+000	  1.154445E+000	  1.028037E+000	  2.886611E-001	  1.698929E-002	  2.100168E-002	  2.808195E-002	  0.000000E+000	  0.000000E+000	  0.000000E+000	  0.000000E+000
         1.9000	  6.414000E+001	  1.500000E+001	 -1.688040E+002	  3.056734E+001	  1.376335E+001	  1.175161E+001	  9.497424E+000	 -1.169872E+000	 -4.168166E+000	 -3.138186E+000	 -2.954227E+000	  6.971490E-001	  1.028414E+000	  6.639323E-001	  5.059748E-001	  1.101081E-001	  3.923068E-001	  2.953653E-001	  2.780512E-001	  4.553253E-002	  4.059917E-002	  1.879546E-002	  1.115859E-002	  2.596734E+001	  9.913350E+000	  9.301613E+000	  8.447425E+000	  8.737867E-001	  1.464192E+000	  1.190966E+000	  1.028266E+000	  3.044460E-001	  2.775225E-002	  2.434270E-002	  3.333397E-002	  0.000000E+000	  0.000000E+000	  0.000000E+000	  0.000000E+000
         1.9500	  6.414000E+001	  1.500000E+001	 -1.495620E+002	  3.147770E+001	  1.454976E+001	  1.231002E+001	  9.996019E+000	 -1.120414E+000	 -3.958479E+000	 -2.936600E+000	 -2.695773E+000	  7.022898E-001	  1.050087E+000	  6.716777E-001	  5.075433E-001	  1.045383E-001	  3.693390E-001	  2.739943E-001	  2.515244E-001	  4.690433E-002	  4.201575E-002	  1.919853E-002	  1.127729E-002	  2.687770E+001	  1.069976E+001	  9.860023E+000	  8.946020E+000	  9.012268E-001	  1.523250E+000	  1.224605E+000	  1.054711E+000	  3.305958E-001	  3.792199E-002	  2.821495E-002	  4.249424E-002	  0.000000E+000	  0.000000E+000	  0.000000E+000	  0.000000E+000
         2.0000	  6.414000E+001	  1.500000E+001	 -1.303199E+002	  3.292847E+001	  1.556999E+001	  1.297208E+001	  1.052002E+001	 -1.041092E+000	 -3.702069E+000	 -2.720073E+000	 -2.455819E+000	  6.987377E-001	  1.071210E+000	  6.759707E-001	  5.072381E-001	  9.645212E-002	  3.429787E-001	  2.520015E-001	  2.275196E-001	  4.865741E-002	  4.393760E-002	  1.966550E-002	  1.142600E-002	  2.832847E+001	  1.171999E+001	  1.052208E+001	  9.470022E+000	  9.359947E-001	  1.611574E+000	  1.256378E+000	  1.042032E+000	  3.674368E-001	  4.949054E-002	  3.368662E-002	  4.870963E-002	  0.000000E+000	  0.000000E+000	  0.000000E+000	  0.000000E+000
         2.0500	  6.414000E+001	  1.500000E+001	 -1.110780E+002	  3.487889E+001	  2.022351E+001	  1.369667E+001	  1.101923E+001	 -9.317400E-001	 -1.888536E+000	 -2.502837E+000	 -2.261021E+000	  6.789227E-001	  7.492682E-001	  6.730317E-001	  5.049579E-001	  8.591694E-002	  1.741443E-001	  2.307898E-001	  2.084917E-001	  5.013431E-002	  3.179989E-002	  2.005748E-002	  1.158824E-002	  3.027889E+001	  1.637351E+001	  1.124667E+001	  9.969231E+000	  1.069355E+000	  1.947220E+000	  1.311904E+000	  1.065253E+000	  4.265174E-001	  1.860336E-001	  4.480404E-002	  5.803590E-002	  0.000000E+000	  0.000000E+000	  0.000000E+000	  0.000000E+000
         2.1000	  6.414000E+001	  1.500000E+001	 -9.183594E+001	  3.720128E+001	  2.257318E+001	  1.442948E+001	  1.144976E+001	 -8.058234E-001	 -1.226367E+000	 -2.300521E+000	 -2.126207E+000	  6.416963E-001	  5.552303E-001	  6.605951E-001	  5.009210E-001	  7.417087E-002	  1.128792E-001	  2.117482E-001	  1.957038E-001	  5.089033E-002	  2.453591E-002	  2.024970E-002	  1.174703E-002	  3.260128E+001	  1.872318E+001	  1.197948E+001	  1.039976E+001	  1.190542E+000	  2.005206E+000	  1.297970E+000	  1.045490E+000	  5.221158E-001	  3.087826E-001	  5.554521E-002	  6.277585E-002	  0.000000E+000	  0.000000E+000	  0.000000E+000	  0.000000E+000
         2.1500	  6.414000E+001	  1.500000E+001	 -7.259389E+001	  3.965399E+001	  2.387181E+001	  1.510177E+001	  1.177335E+001	 -6.869206E-001	 -1.033734E+000	 -2.129376E+000	 -2.056403E+000	  5.961228E-001	  4.968338E-001	  6.399935E-001	  4.956491E-001	  6.330515E-002	  9.526677E-002	  1.962388E-001	  1.895137E-001	  5.109686E-002	  2.290990E-002	  2.020207E-002	  1.188621E-002	  3.505399E+001	  2.002181E+001	  1.265177E+001	  1.072335E+001	  1.278293E+000	  1.527403E+000	  1.276175E+000	  1.057951E+000	  6.489779E-001	  3.150007E-001	  6.461498E-002	  6.839019E-002	  0.000000E+000	  0.000000E+000	  0.000000E+000	  0.000000E+000